
     Program PWSCF v.6.8 starts on  8Aug2021 at  4:20:10 

     This program is part of the open-source Quantum ESPRESSO suite
     for quantum simulation of materials; please cite
         "P. Giannozzi et al., J. Phys.:Condens. Matter 21 395502 (2009);
         "P. Giannozzi et al., J. Phys.:Condens. Matter 29 465901 (2017);
         "P. Giannozzi et al., J. Chem. Phys. 152 154105 (2020);
          URL http://www.quantum-espresso.org", 
     in publications or presentations arising from this work. More details at
     http://www.quantum-espresso.org/quote

     Serial version
     1024 MiB available memory on the printing compute node when the environment starts

     Waiting for input...
     Reading input from standard input

     Current dimensions of program PWSCF are:
     Max number of different atomic species (ntypx) = 10
     Max number of k-points (npk) =  40000
     Max angular momentum in pseudopotentials (lmaxx) =  4

     IMPORTANT: XC functional enforced from input :
     Exchange-correlation= PBE
                           (   1   4   3   4   0   0   0)
     Any further DFT definition will be discarded
     Please, verify this is what you really want


     --------------------------------------------
     DFT-D3 Dispersion Correction (3-body terms):
     --------------------------------------------
       Reference C6 values for interpolation: 

         atom   Coordination number   C6
         C          0.000            98.23
         C          0.987            86.49
         C          1.998            58.72
         C          2.999            51.56
         C          3.984            36.41
         Si         0.000           635.71
         Si         0.951           540.53
         Si         1.944           466.25
         Si         2.941           443.01
         Si         3.868           299.55
         Ge         0.000           727.09
         Ge         0.943           633.70
         Ge         1.945           573.31
         Ge         2.919           459.90
         Ge         3.897           360.58

       Values used:

         atom   Coordination number  R0_AB[au]  C6      C8
         C          3.008            2.750     51.31   1484.06
         Ge         3.944            3.649    361.94  33335.91
         C          2.989            2.750     51.38   1486.07
         Si         3.511            3.583    340.39  24347.08

         Molecular C6 ( Ry / a.u.^6 ) =      2665.92


     G-vector sticks info
     --------------------
     sticks:   dense  smooth     PW     G-vecs:    dense   smooth      PW
     Sum         511     421    121                73575    52931    8889

     Using Slab Decomposition



     bravais-lattice index     =            4
     lattice parameter (alat)  =       6.1397  a.u.
     unit-cell volume          =    1542.2922 (a.u.)^3
     number of atoms/cell      =            4
     number of atomic types    =            3
     number of electrons       =        16.00
     number of Kohn-Sham states=           12
     kinetic-energy cutoff     =      40.0000  Ry
     charge density cutoff     =     200.0000  Ry
     scf convergence threshold =      1.0E-06
     mixing beta               =       0.7000
     number of iterations used =            8  plain     mixing
     Exchange-correlation= PBE
                           (   1   4   3   4   0   0   0)

     celldm(1)=   6.139720  celldm(2)=   0.000000  celldm(3)=   7.694675
     celldm(4)=   0.000000  celldm(5)=   0.000000  celldm(6)=   0.000000

     crystal axes: (cart. coord. in units of alat)
               a(1) = (   1.000000   0.000000   0.000000 )  
               a(2) = (  -0.500000   0.866025   0.000000 )  
               a(3) = (   0.000000   0.000000   7.694675 )  

     reciprocal axes: (cart. coord. in units 2 pi/alat)
               b(1) = (  1.000000  0.577350 -0.000000 )  
               b(2) = (  0.000000  1.154701  0.000000 )  
               b(3) = (  0.000000 -0.000000  0.129960 )  


     PseudoPot. # 1 for C  read from file:
     ./pseudo/C.pbe-n-rrkjus_psl.1.0.0.UPF
     MD5 check sum: 1fdd950c42eb37d8afe3dd2f8d12311e
     Pseudo is Ultrasoft + core correction, Zval =  4.0
     Generated using &quot;atomic&quot; code by A. Dal Corso  v.6.3MaX
     Using radial grid of 1073 points,  4 beta functions with: 
                l(1) =   0
                l(2) =   0
                l(3) =   1
                l(4) =   1
     Q(r) pseudized with 0 coefficients 


     PseudoPot. # 2 for Ge read from file:
     ./pseudo/Ge.pbe-n-kjpaw_psl.1.0.0.UPF
     MD5 check sum: 86cd6a1ce4ead6fa7a4673d64b86017a
     Pseudo is Projector augmented-wave + core cor, Zval =  4.0
     Generated using &quot;atomic&quot; code by A. Dal Corso  v.6.3
     Shape of augmentation charge: PSQ
     Using radial grid of 1207 points,  4 beta functions with: 
                l(1) =   0
                l(2) =   0
                l(3) =   1
                l(4) =   1
     Q(r) pseudized with 0 coefficients 


     PseudoPot. # 3 for Si read from file:
     ./pseudo/Si.pbe-n-rrkjus_psl.1.0.0.UPF
     MD5 check sum: fa25574f73a70a4139f2adfbefec430c
     Pseudo is Ultrasoft + core correction, Zval =  4.0
     Generated using &quot;atomic&quot; code by A. Dal Corso  v.6.3
     Using radial grid of 1141 points,  6 beta functions with: 
                l(1) =   0
                l(2) =   0
                l(3) =   1
                l(4) =   1
                l(5) =   2
                l(6) =   2
     Q(r) pseudized with 0 coefficients 


     atomic species   valence    mass     pseudopotential
        C              4.00    12.01070     C ( 1.00)
        Ge             4.00    72.64000     Ge( 1.00)
        Si             4.00    28.08550     Si( 1.00)

      2 Sym. Ops. (no inversion) found


                                    s                        frac. trans.

      isym =  1     identity                                     

 cryst.   s( 1) = (     1          0          0      )
                  (     0          1          0      )
                  (     0          0          1      )

 cart.    s( 1) = (  1.0000000  0.0000000  0.0000000 )
                  (  0.0000000  1.0000000  0.0000000 )
                  (  0.0000000  0.0000000  1.0000000 )


      isym =  2     inv. 180 deg rotation - cart. axis [1,0,0]   

 cryst.   s( 2) = (    -1          0          0      )
                  (     1          1          0      )
                  (     0          0          1      )

 cart.    s( 2) = ( -1.0000000  0.0000000  0.0000000 )
                  (  0.0000000  1.0000000  0.0000000 )
                  (  0.0000000  0.0000000  1.0000000 )


     point group C_s (m)    
     there are  2 classes
     the character table:

       E     s    
A'     1.00  1.00
A''    1.00 -1.00

     the symmetry operations in each class and the name of the first element:

     E        1
          identity                                               
     s        2
          inv. 180 deg rotation - cart. axis [1,0,0]             

   Cartesian axes

     site n.     atom                  positions (alat units)
         1           C   tau(   1) = (  -0.0000002   0.5773765   4.4272551  )
         2           Ge  tau(   2) = (  -0.0000002  -0.0000000   4.4272551  )
         3           C   tau(   3) = (   0.0000000   0.0000000   3.0778701  )
         4           Si  tau(   4) = (   0.0000000   0.5773766   3.0778701  )

   Crystallographic axes

     site n.     atom                  positions (cryst. coord.)
         1           C   tau(   1) = (  0.3333483  0.6666970  0.5753661  )
         2           Ge  tau(   2) = ( -0.0000002 -0.0000001  0.5753661  )
         3           C   tau(   3) = (  0.0000000  0.0000000  0.4000000  )
         4           Si  tau(   4) = (  0.3333485  0.6666970  0.4000000  )

     number of k points=    13  Marzari-Vanderbilt smearing, width (Ry)=  0.0050
                       cart. coord. in units 2pi/alat
        k(    1) = (   0.0000000   0.0000000   0.0000000), wk =   0.0555556
        k(    2) = (   0.0000000   0.1924501   0.0000000), wk =   0.1111111
        k(    3) = (   0.0000000   0.3849002   0.0000000), wk =   0.1111111
        k(    4) = (   0.0000000  -0.5773503   0.0000000), wk =   0.0555556
        k(    5) = (   0.1666667   0.2886751   0.0000000), wk =   0.2222222
        k(    6) = (   0.1666667   0.4811252   0.0000000), wk =   0.2222222
        k(    7) = (   0.3333333   0.5773503   0.0000000), wk =   0.1111111
        k(    8) = (  -0.1666667   0.0962250   0.0000000), wk =   0.2222222
        k(    9) = (  -0.3333333   0.1924501   0.0000000), wk =   0.2222222
        k(   10) = (   0.5000000  -0.2886751   0.0000000), wk =   0.1111111
        k(   11) = (   0.3333333   0.0000000   0.0000000), wk =   0.1111111
        k(   12) = (  -0.3333333   0.3849002   0.0000000), wk =   0.2222222
        k(   13) = (   0.5000000   0.0962250   0.0000000), wk =   0.2222222

                       cryst. coord.
        k(    1) = (   0.0000000   0.0000000   0.0000000), wk =   0.0555556
        k(    2) = (   0.0000000   0.1666667   0.0000000), wk =   0.1111111
        k(    3) = (   0.0000000   0.3333333   0.0000000), wk =   0.1111111
        k(    4) = (   0.0000000  -0.5000000   0.0000000), wk =   0.0555556
        k(    5) = (   0.1666667   0.1666667   0.0000000), wk =   0.2222222
        k(    6) = (   0.1666667   0.3333333   0.0000000), wk =   0.2222222
        k(    7) = (   0.3333333   0.3333333   0.0000000), wk =   0.1111111
        k(    8) = (  -0.1666667   0.1666667   0.0000000), wk =   0.2222222
        k(    9) = (  -0.3333333   0.3333333   0.0000000), wk =   0.2222222
        k(   10) = (   0.5000000  -0.5000000   0.0000000), wk =   0.1111111
        k(   11) = (   0.3333333  -0.1666667   0.0000000), wk =   0.1111111
        k(   12) = (  -0.3333333   0.5000000   0.0000000), wk =   0.2222222
        k(   13) = (   0.5000000  -0.1666667   0.0000000), wk =   0.2222222

     Dense  grid:    73575 G-vectors     FFT dimensions: (  27,  27, 216)

     Smooth grid:    52931 G-vectors     FFT dimensions: (  25,  25, 192)

     Dynamical RAM for                 wfc:       1.21 MB

     Dynamical RAM for     wfc (w. buffer):      16.89 MB

     Dynamical RAM for           str. fact:       3.37 MB

     Dynamical RAM for           local pot:       0.00 MB

     Dynamical RAM for          nlocal pot:       4.22 MB

     Dynamical RAM for                qrad:       3.41 MB

     Dynamical RAM for          rho,v,vnew:       6.97 MB

     Dynamical RAM for               rhoin:       2.32 MB

     Dynamical RAM for            rho*nmix:      17.96 MB

     Dynamical RAM for           G-vectors:       4.61 MB

     Dynamical RAM for          h,s,v(r/c):       0.03 MB

     Dynamical RAM for          <psi|beta>:       0.01 MB

     Dynamical RAM for                 psi:       2.41 MB

     Dynamical RAM for                hpsi:       2.41 MB

     Dynamical RAM for                spsi:       2.41 MB

     Dynamical RAM for      wfcinit/wfcrot:       3.22 MB

     Dynamical RAM for           addusdens:     211.06 MB

     Estimated static dynamical RAM per process >      52.30 MB

     Estimated max dynamical RAM per process >     281.32 MB

     Check: negative core charge=   -0.000010

     Initial potential from superposition of free atoms

     starting charge   15.99859, renormalised to   16.00000

     negative rho (up, down):  1.083E-04 0.000E+00
     Starting wfcs are   16 randomized atomic wfcs

     total cpu time spent up to now is        1.9 secs

     Self-consistent Calculation

     iteration #  1     ecut=    40.00 Ry     beta= 0.70
     Davidson diagonalization with overlap

---- Real-time Memory Report at c_bands before calling an iterative solver
           268 MiB given to the printing process from OS
             0 MiB allocation reported by mallinfo(arena+hblkhd)
           956 MiB available memory on the node where the printing process lives
------------------
     ethr =  1.00E-02,  avg # of iterations =  3.0

     negative rho (up, down):  1.913E-04 0.000E+00

     total cpu time spent up to now is        4.5 secs

     total energy              =    -199.70618498 Ry
     estimated scf accuracy    <       1.15594826 Ry

     iteration #  2     ecut=    40.00 Ry     beta= 0.70
     Davidson diagonalization with overlap

---- Real-time Memory Report at c_bands before calling an iterative solver
           304 MiB given to the printing process from OS
             0 MiB allocation reported by mallinfo(arena+hblkhd)
           925 MiB available memory on the node where the printing process lives
------------------
     ethr =  7.22E-03,  avg # of iterations =  2.5

     negative rho (up, down):  2.344E-04 0.000E+00

     total cpu time spent up to now is        6.8 secs

     total energy              =    -200.00208150 Ry
     estimated scf accuracy    <       1.21294105 Ry

     iteration #  3     ecut=    40.00 Ry     beta= 0.70
     Davidson diagonalization with overlap

---- Real-time Memory Report at c_bands before calling an iterative solver
           306 MiB given to the printing process from OS
             0 MiB allocation reported by mallinfo(arena+hblkhd)
           931 MiB available memory on the node where the printing process lives
------------------
     ethr =  7.22E-03,  avg # of iterations =  2.0

     negative rho (up, down):  1.567E-04 0.000E+00

     total cpu time spent up to now is        8.8 secs

     total energy              =    -200.20313951 Ry
     estimated scf accuracy    <       0.01150485 Ry

     iteration #  4     ecut=    40.00 Ry     beta= 0.70
     Davidson diagonalization with overlap

---- Real-time Memory Report at c_bands before calling an iterative solver
           308 MiB given to the printing process from OS
             0 MiB allocation reported by mallinfo(arena+hblkhd)
           928 MiB available memory on the node where the printing process lives
------------------
     ethr =  7.19E-05,  avg # of iterations =  5.4

     negative rho (up, down):  1.805E-04 0.000E+00

     total cpu time spent up to now is       11.8 secs

     total energy              =    -200.20997958 Ry
     estimated scf accuracy    <       0.00495450 Ry

     iteration #  5     ecut=    40.00 Ry     beta= 0.70
     Davidson diagonalization with overlap

---- Real-time Memory Report at c_bands before calling an iterative solver
           309 MiB given to the printing process from OS
             0 MiB allocation reported by mallinfo(arena+hblkhd)
           925 MiB available memory on the node where the printing process lives
------------------
     ethr =  3.10E-05,  avg # of iterations =  3.0

     negative rho (up, down):  1.979E-04 0.000E+00

     total cpu time spent up to now is       14.0 secs

     total energy              =    -200.21072727 Ry
     estimated scf accuracy    <       0.00094053 Ry

     iteration #  6     ecut=    40.00 Ry     beta= 0.70
     Davidson diagonalization with overlap

---- Real-time Memory Report at c_bands before calling an iterative solver
           311 MiB given to the printing process from OS
             0 MiB allocation reported by mallinfo(arena+hblkhd)
           930 MiB available memory on the node where the printing process lives
------------------
     ethr =  5.88E-06,  avg # of iterations =  3.5

     negative rho (up, down):  2.012E-04 0.000E+00

     total cpu time spent up to now is       16.3 secs

     total energy              =    -200.21086701 Ry
     estimated scf accuracy    <       0.00012244 Ry

     iteration #  7     ecut=    40.00 Ry     beta= 0.70
     Davidson diagonalization with overlap

---- Real-time Memory Report at c_bands before calling an iterative solver
           313 MiB given to the printing process from OS
             0 MiB allocation reported by mallinfo(arena+hblkhd)
           928 MiB available memory on the node where the printing process lives
------------------
     ethr =  7.65E-07,  avg # of iterations =  2.2

     negative rho (up, down):  2.041E-04 0.000E+00

     total cpu time spent up to now is       18.5 secs

     total energy              =    -200.21089889 Ry
     estimated scf accuracy    <       0.00000626 Ry

     iteration #  8     ecut=    40.00 Ry     beta= 0.70
     Davidson diagonalization with overlap

---- Real-time Memory Report at c_bands before calling an iterative solver
           314 MiB given to the printing process from OS
             0 MiB allocation reported by mallinfo(arena+hblkhd)
           925 MiB available memory on the node where the printing process lives
------------------
     ethr =  3.91E-08,  avg # of iterations =  2.2

     negative rho (up, down):  2.041E-04 0.000E+00

     total cpu time spent up to now is       20.7 secs

     total energy              =    -200.21090008 Ry
     estimated scf accuracy    <       0.00000164 Ry

     iteration #  9     ecut=    40.00 Ry     beta= 0.70
     Davidson diagonalization with overlap

---- Real-time Memory Report at c_bands before calling an iterative solver
           316 MiB given to the printing process from OS
             0 MiB allocation reported by mallinfo(arena+hblkhd)
           923 MiB available memory on the node where the printing process lives
------------------
     ethr =  1.03E-08,  avg # of iterations =  1.6

     negative rho (up, down):  2.044E-04 0.000E+00

     total cpu time spent up to now is       22.6 secs

     End of self-consistent calculation

          k = 0.0000 0.0000 0.0000 (  6623 PWs)   bands (ev):

   -16.0990 -15.4410  -6.0151  -5.4700  -3.8318  -3.8310  -3.3425  -3.3416
     0.1332   0.8309   1.8333   2.0308

     occupation numbers 
     1.0000   1.0000   1.0000   1.0000   1.0000   1.0000   1.0000   1.0000
     0.0000   0.0000   0.0000   0.0000

          k = 0.0000 0.1925 0.0000 (  6561 PWs)   bands (ev):

   -15.6655 -15.0362  -5.5834  -5.5305  -5.4642  -5.0347  -4.2699  -3.9455
     0.8992   1.6290   2.3605   2.5448

     occupation numbers 
     1.0000   1.0000   1.0000   1.0000   1.0000   1.0000   1.0000   1.0000
     0.0000   0.0000   0.0000   0.0000

          k = 0.0000 0.3849 0.0000 (  6567 PWs)   bands (ev):

   -14.4222 -13.9071  -8.6914  -8.3116  -4.9598  -4.8618  -4.2976  -3.8333
     1.0427   1.4002   1.5791   1.9087

     occupation numbers 
     1.0000   1.0000   1.0000   1.0000   1.0000   1.0000   1.0000   1.0000
     0.0000   0.0000   0.0000   0.0000

          k = 0.0000-0.5774 0.0000 (  6592 PWs)   bands (ev):

   -13.1424 -12.8622 -10.7093  -9.9801  -5.2498  -5.2311  -3.0844  -2.7507
    -0.1587   0.3076   0.7344   1.1053

     occupation numbers 
     1.0000   1.0000   1.0000   1.0000   1.0000   1.0000   1.0000   1.0000
     0.0000   0.0000   0.0000   0.0000

          k = 0.1667 0.2887 0.0000 (  6572 PWs)   bands (ev):

   -14.8212 -14.2624  -7.5542  -7.3101  -5.3881  -5.3259  -4.6964  -4.2096
     1.9105   2.2674   2.5296   2.8539

     occupation numbers 
     1.0000   1.0000   1.0000   1.0000   1.0000   1.0000   1.0000   1.0000
     0.0000   0.0000   0.0000   0.0000

          k = 0.1667 0.4811 0.0000 (  6601 PWs)   bands (ev):

   -13.3352 -12.9921  -9.9851  -9.3419  -6.4784  -6.3730  -3.2355  -2.8528
     0.3699   0.7354   2.4396   3.0107

     occupation numbers 
     1.0000   1.0000   1.0000   1.0000   1.0000   1.0000   1.0000   1.0000
     0.0000   0.0000   0.0000   0.0000

          k = 0.3333 0.5774 0.0000 (  6618 PWs)   bands (ev):

   -12.3932 -12.3345 -10.6350  -9.6348  -7.7690  -7.6037  -2.3345  -2.1437
    -0.1811  -0.0256   4.0377   4.6310

     occupation numbers 
     1.0000   1.0000   1.0000   1.0000   1.0000   1.0000   1.0000   1.0000
     0.0000   0.0000   0.0000   0.0000

          k =-0.1667 0.0962 0.0000 (  6561 PWs)   bands (ev):

   -15.6655 -15.0362  -5.5835  -5.5308  -5.4646  -5.0347  -4.2693  -3.9449
     0.8993   1.6291   2.3606   2.5453

     occupation numbers 
     1.0000   1.0000   1.0000   1.0000   1.0000   1.0000   1.0000   1.0000
     0.0000   0.0000   0.0000   0.0000

          k =-0.3333 0.1925 0.0000 (  6567 PWs)   bands (ev):

   -14.4221 -13.9070  -8.6918  -8.3120  -4.9593  -4.8614  -4.2975  -3.8332
     1.0430   1.4004   1.5790   1.9084

     occupation numbers 
     1.0000   1.0000   1.0000   1.0000   1.0000   1.0000   1.0000   1.0000
     0.0000   0.0000   0.0000   0.0000

          k = 0.5000-0.2887 0.0000 (  6592 PWs)   bands (ev):

   -13.1420 -12.8620 -10.7100  -9.9806  -5.2494  -5.2308  -3.0841  -2.7504
    -0.1591   0.3070   0.7347   1.1057

     occupation numbers 
     1.0000   1.0000   1.0000   1.0000   1.0000   1.0000   1.0000   1.0000
     0.0000   0.0000   0.0000   0.0000

          k = 0.3333 0.0000 0.0000 (  6572 PWs)   bands (ev):

   -14.8212 -14.2623  -7.5547  -7.3105  -5.3876  -5.3253  -4.6963  -4.2095
     1.9105   2.2672   2.5294   2.8539

     occupation numbers 
     1.0000   1.0000   1.0000   1.0000   1.0000   1.0000   1.0000   1.0000
     0.0000   0.0000   0.0000   0.0000

          k =-0.3333 0.3849 0.0000 (  6601 PWs)   bands (ev):

   -13.3351 -12.9920  -9.9855  -9.3422  -6.4781  -6.3727  -3.2354  -2.8526
     0.3697   0.7351   2.4400   3.0110

     occupation numbers 
     1.0000   1.0000   1.0000   1.0000   1.0000   1.0000   1.0000   1.0000
     0.0000   0.0000   0.0000   0.0000

          k = 0.5000 0.0962 0.0000 (  6601 PWs)   bands (ev):

   -13.3351 -12.9919  -9.9857  -9.3424  -6.4780  -6.3726  -3.2354  -2.8526
     0.3696   0.7350   2.4400   3.0109

     occupation numbers 
     1.0000   1.0000   1.0000   1.0000   1.0000   1.0000   1.0000   1.0000
     0.0000   0.0000   0.0000   0.0000

     the Fermi energy is    -1.5920 ev

!    total energy              =    -200.21090004 Ry
     estimated scf accuracy    <       0.00000034 Ry
     smearing contrib. (-TS)   =       0.00000000 Ry
     internal energy E=F+TS    =    -200.21090004 Ry

     The total energy is F=E-TS. E is the sum of the following terms:
     one-electron contribution =    -377.47564289 Ry
     hartree contribution      =     192.18786948 Ry
     xc contribution           =     -21.78999760 Ry
     ewald contribution        =     159.64971049 Ry
     DFT-D3 Dispersion         =      -0.01874510 Ry
     one-center paw contrib.   =    -152.76409441 Ry
      -> PAW hartree energy AE =       4.86427356 Ry
      -> PAW hartree energy PS =      -4.85982046 Ry
      -> PAW xc energy AE      =    -159.07966004 Ry
      -> PAW xc energy PS      =       6.31111252 Ry
      -> total E_H with PAW    =     192.19232258 Ry
      -> total E_XC with PAW   =    -174.55854512 Ry

     convergence has been achieved in   9 iterations

     Writing output data file ./work1/sic_gec3.save/

     init_run     :      1.65s CPU      1.72s WALL (       1 calls)
     electrons    :     19.61s CPU     20.68s WALL (       1 calls)

     Called by init_run:
     wfcinit      :      0.68s CPU      0.68s WALL (       1 calls)
     wfcinit:atom :      0.01s CPU      0.01s WALL (      13 calls)
     wfcinit:wfcr :      0.58s CPU      0.58s WALL (      13 calls)
     potinit      :      0.21s CPU      0.22s WALL (       1 calls)
     hinit0       :      0.56s CPU      0.56s WALL (       1 calls)

     Called by electrons:
     c_bands      :     13.52s CPU     13.57s WALL (       9 calls)
     sum_band     :      3.58s CPU      4.12s WALL (       9 calls)
     v_of_rho     :      0.66s CPU      0.67s WALL (      10 calls)
     v_h          :      0.03s CPU      0.04s WALL (      10 calls)
     v_xc         :      0.63s CPU      0.63s WALL (      10 calls)
     newd         :      1.62s CPU      2.13s WALL (      10 calls)
     PAW_pot      :      0.29s CPU      0.29s WALL (      10 calls)
     mix_rho      :      0.10s CPU      0.10s WALL (       9 calls)
     energy_dftd3 :      0.03s CPU      0.03s WALL (       1 calls)

     Called by c_bands:
     init_us_2    :      0.53s CPU      0.53s WALL (     247 calls)
     cegterg      :     12.66s CPU     12.68s WALL (     117 calls)

     Called by sum_band:
     sum_band:wei :      0.00s CPU      0.00s WALL (       9 calls)
     sum_band:loo :      1.93s CPU      1.93s WALL (       9 calls)
     sum_band:buf :      0.02s CPU      0.02s WALL (     117 calls)
     sum_band:ini :      0.24s CPU      0.24s WALL (     117 calls)
     sum_band:cal :      0.57s CPU      0.57s WALL (     117 calls)
     sum_band:bec :      0.00s CPU      0.00s WALL (     117 calls)
     addusdens    :      1.58s CPU      2.11s WALL (       9 calls)
     addusd:skk   :      0.01s CPU      0.01s WALL (      27 calls)
     addusd:dgemm :      0.36s CPU      0.84s WALL (      27 calls)
     addusd:qvan2 :      1.01s CPU      1.01s WALL (      27 calls)

     Called by *egterg:
     cdiaghg      :      0.06s CPU      0.06s WALL (     447 calls)
     cegterg:over :      0.84s CPU      0.85s WALL (     330 calls)
     cegterg:upda :      0.46s CPU      0.46s WALL (     330 calls)
     cegterg:last :      1.11s CPU      1.12s WALL (     263 calls)
     h_psi        :      8.91s CPU      8.92s WALL (     460 calls)
     s_psi        :      1.33s CPU      1.33s WALL (     460 calls)
     g_psi        :      0.05s CPU      0.05s WALL (     330 calls)

     Called by h_psi:
     h_psi:calbec :      1.76s CPU      1.76s WALL (     460 calls)
     vloc_psi     :      5.77s CPU      5.78s WALL (     460 calls)
     add_vuspsi   :      1.32s CPU      1.32s WALL (     460 calls)

     General routines
     calbec       :      2.33s CPU      2.33s WALL (     577 calls)
     fft          :      0.36s CPU      0.37s WALL (     128 calls)
     ffts         :      0.03s CPU      0.03s WALL (      19 calls)
     fftw         :      5.65s CPU      5.66s WALL (    9340 calls)
     interpolate  :      0.06s CPU      0.06s WALL (      10 calls)


     PAW routines
     PAW_pot      :      0.29s CPU      0.29s WALL (      10 calls)
     PAW_symme    :      0.00s CPU      0.00s WALL (      19 calls)

     PWSCF        :     21.48s CPU     22.73s WALL


   This run was terminated on:   4:20:33   8Aug2021            

=------------------------------------------------------------------------------=
   JOB DONE.
=------------------------------------------------------------------------------=
