
     Program PWSCF v.6.8 starts on  8Aug2021 at  4:19:14 

     This program is part of the open-source Quantum ESPRESSO suite
     for quantum simulation of materials; please cite
         "P. Giannozzi et al., J. Phys.:Condens. Matter 21 395502 (2009);
         "P. Giannozzi et al., J. Phys.:Condens. Matter 29 465901 (2017);
         "P. Giannozzi et al., J. Chem. Phys. 152 154105 (2020);
          URL http://www.quantum-espresso.org", 
     in publications or presentations arising from this work. More details at
     http://www.quantum-espresso.org/quote

     Serial version
     1023 MiB available memory on the printing compute node when the environment starts

     Waiting for input...
     Reading input from standard input

     Current dimensions of program PWSCF are:
     Max number of different atomic species (ntypx) = 10
     Max number of k-points (npk) =  40000
     Max angular momentum in pseudopotentials (lmaxx) =  4

     IMPORTANT: XC functional enforced from input :
     Exchange-correlation= PBE
                           (   1   4   3   4   0   0   0)
     Any further DFT definition will be discarded
     Please, verify this is what you really want


     --------------------------------------------
     DFT-D3 Dispersion Correction (3-body terms):
     --------------------------------------------
       Reference C6 values for interpolation: 

         atom   Coordination number   C6
         C          0.000            98.23
         C          0.987            86.49
         C          1.998            58.72
         C          2.999            51.56
         C          3.984            36.41
         Si         0.000           635.71
         Si         0.951           540.53
         Si         1.944           466.25
         Si         2.941           443.01
         Si         3.868           299.55
         Ge         0.000           727.09
         Ge         0.943           633.70
         Ge         1.945           573.31
         Ge         2.919           459.90
         Ge         3.897           360.58

       Values used:

         atom   Coordination number  R0_AB[au]  C6      C8
         C          3.008            2.750     51.31   1484.08
         Ge         3.943            3.649    361.95  33336.41
         C          2.989            2.750     51.38   1486.09
         Si         3.510            3.583    340.49  24354.35

         Molecular C6 ( Ry / a.u.^6 ) =      2666.22


     G-vector sticks info
     --------------------
     sticks:   dense  smooth     PW     G-vecs:    dense   smooth      PW
     Sum         511     421    121                73575    52931    8889

     Using Slab Decomposition



     bravais-lattice index     =            4
     lattice parameter (alat)  =       6.1397  a.u.
     unit-cell volume          =    1542.2922 (a.u.)^3
     number of atoms/cell      =            4
     number of atomic types    =            3
     number of electrons       =        16.00
     number of Kohn-Sham states=           12
     kinetic-energy cutoff     =      40.0000  Ry
     charge density cutoff     =     200.0000  Ry
     scf convergence threshold =      1.0E-06
     mixing beta               =       0.7000
     number of iterations used =            8  plain     mixing
     Exchange-correlation= PBE
                           (   1   4   3   4   0   0   0)

     celldm(1)=   6.139720  celldm(2)=   0.000000  celldm(3)=   7.694675
     celldm(4)=   0.000000  celldm(5)=   0.000000  celldm(6)=   0.000000

     crystal axes: (cart. coord. in units of alat)
               a(1) = (   1.000000   0.000000   0.000000 )  
               a(2) = (  -0.500000   0.866025   0.000000 )  
               a(3) = (   0.000000   0.000000   7.694675 )  

     reciprocal axes: (cart. coord. in units 2 pi/alat)
               b(1) = (  1.000000  0.577350 -0.000000 )  
               b(2) = (  0.000000  1.154701  0.000000 )  
               b(3) = (  0.000000 -0.000000  0.129960 )  


     PseudoPot. # 1 for C  read from file:
     ./pseudo/C.pbe-n-rrkjus_psl.1.0.0.UPF
     MD5 check sum: 1fdd950c42eb37d8afe3dd2f8d12311e
     Pseudo is Ultrasoft + core correction, Zval =  4.0
     Generated using &quot;atomic&quot; code by A. Dal Corso  v.6.3MaX
     Using radial grid of 1073 points,  4 beta functions with: 
                l(1) =   0
                l(2) =   0
                l(3) =   1
                l(4) =   1
     Q(r) pseudized with 0 coefficients 


     PseudoPot. # 2 for Ge read from file:
     ./pseudo/Ge.pbe-n-rrkjus_psl.1.0.0.UPF
     MD5 check sum: a23a7f3f7456476e534e54484b27d8e8
     Pseudo is Ultrasoft + core correction, Zval =  4.0
     Generated using &quot;atomic&quot; code by A. Dal Corso  v.6.3
     Using radial grid of 1207 points,  4 beta functions with: 
                l(1) =   0
                l(2) =   0
                l(3) =   1
                l(4) =   1
     Q(r) pseudized with 0 coefficients 


     PseudoPot. # 3 for Si read from file:
     ./pseudo/Si.pbe-n-rrkjus_psl.1.0.0.UPF
     MD5 check sum: fa25574f73a70a4139f2adfbefec430c
     Pseudo is Ultrasoft + core correction, Zval =  4.0
     Generated using &quot;atomic&quot; code by A. Dal Corso  v.6.3
     Using radial grid of 1141 points,  6 beta functions with: 
                l(1) =   0
                l(2) =   0
                l(3) =   1
                l(4) =   1
                l(5) =   2
                l(6) =   2
     Q(r) pseudized with 0 coefficients 


     atomic species   valence    mass     pseudopotential
        C              4.00    12.01070     C ( 1.00)
        Ge             4.00    72.64000     Ge( 1.00)
        Si             4.00    28.08550     Si( 1.00)

     No symmetry found


                                    s                        frac. trans.

      isym =  1     identity                                     

 cryst.   s( 1) = (     1          0          0      )
                  (     0          1          0      )
                  (     0          0          1      )

 cart.    s( 1) = (  1.0000000  0.0000000  0.0000000 )
                  (  0.0000000  1.0000000  0.0000000 )
                  (  0.0000000  0.0000000  1.0000000 )


     point group C_1 (1)    
     there are  1 classes
     the character table:

       E    
A      1.00

     the symmetry operations in each class and the name of the first element:

     E        1
          identity                                               

   Cartesian axes

     site n.     atom                  positions (alat units)
         1           C   tau(   1) = (   0.2500113   0.1443441   4.4436113  )
         2           Ge  tau(   2) = (  -0.2500115   0.4330324   4.4436113  )
         3           C   tau(   3) = (   0.0000000   0.0000000   3.0778701  )
         4           Si  tau(   4) = (   0.0000000   0.5773766   3.0778701  )

   Crystallographic axes

     site n.     atom                  positions (cryst. coord.)
         1           C   tau(   1) = (  0.3333484  0.1666742  0.5774917  )
         2           Ge  tau(   2) = ( -0.0000001  0.5000228  0.5774917  )
         3           C   tau(   3) = (  0.0000000  0.0000000  0.4000000  )
         4           Si  tau(   4) = (  0.3333485  0.6666970  0.4000000  )

     number of k points=    20  Marzari-Vanderbilt smearing, width (Ry)=  0.0050
                       cart. coord. in units 2pi/alat
        k(    1) = (   0.0000000   0.0000000   0.0000000), wk =   0.0555556
        k(    2) = (   0.0000000   0.1924501   0.0000000), wk =   0.1111111
        k(    3) = (   0.0000000   0.3849002   0.0000000), wk =   0.1111111
        k(    4) = (   0.0000000  -0.5773503   0.0000000), wk =   0.0555556
        k(    5) = (   0.1666667   0.2886751   0.0000000), wk =   0.1111111
        k(    6) = (   0.1666667   0.4811252   0.0000000), wk =   0.1111111
        k(    7) = (   0.3333333   0.5773503   0.0000000), wk =   0.1111111
        k(    8) = (  -0.1666667   0.0962250   0.0000000), wk =   0.1111111
        k(    9) = (   0.1666667   0.0962250   0.0000000), wk =   0.1111111
        k(   10) = (  -0.3333333   0.1924501   0.0000000), wk =   0.1111111
        k(   11) = (   0.3333333   0.1924501   0.0000000), wk =   0.1111111
        k(   12) = (   0.5000000  -0.2886751   0.0000000), wk =   0.0555556
        k(   13) = (  -0.5000000  -0.2886751   0.0000000), wk =   0.0555556
        k(   14) = (  -0.1666667   0.2886751   0.0000000), wk =   0.1111111
        k(   15) = (   0.3333333   0.0000000   0.0000000), wk =   0.1111111
        k(   16) = (  -0.1666667   0.4811252   0.0000000), wk =   0.1111111
        k(   17) = (  -0.3333333   0.3849002   0.0000000), wk =   0.1111111
        k(   18) = (   0.5000000   0.0962250   0.0000000), wk =   0.1111111
        k(   19) = (  -0.3333333  -0.3849002   0.0000000), wk =   0.1111111
        k(   20) = (   0.5000000  -0.0962250   0.0000000), wk =   0.1111111

                       cryst. coord.
        k(    1) = (   0.0000000   0.0000000   0.0000000), wk =   0.0555556
        k(    2) = (   0.0000000   0.1666667   0.0000000), wk =   0.1111111
        k(    3) = (   0.0000000   0.3333333   0.0000000), wk =   0.1111111
        k(    4) = (   0.0000000  -0.5000000   0.0000000), wk =   0.0555556
        k(    5) = (   0.1666667   0.1666667   0.0000000), wk =   0.1111111
        k(    6) = (   0.1666667   0.3333333   0.0000000), wk =   0.1111111
        k(    7) = (   0.3333333   0.3333333   0.0000000), wk =   0.1111111
        k(    8) = (  -0.1666667   0.1666667   0.0000000), wk =   0.1111111
        k(    9) = (   0.1666667   0.0000000   0.0000000), wk =   0.1111111
        k(   10) = (  -0.3333333   0.3333333   0.0000000), wk =   0.1111111
        k(   11) = (   0.3333333   0.0000000   0.0000000), wk =   0.1111111
        k(   12) = (   0.5000000  -0.5000000   0.0000000), wk =   0.0555556
        k(   13) = (  -0.5000000   0.0000000   0.0000000), wk =   0.0555556
        k(   14) = (  -0.1666667   0.3333333   0.0000000), wk =   0.1111111
        k(   15) = (   0.3333333  -0.1666667   0.0000000), wk =   0.1111111
        k(   16) = (  -0.1666667   0.5000000   0.0000000), wk =   0.1111111
        k(   17) = (  -0.3333333   0.5000000   0.0000000), wk =   0.1111111
        k(   18) = (   0.5000000  -0.1666667   0.0000000), wk =   0.1111111
        k(   19) = (  -0.3333333  -0.1666667   0.0000000), wk =   0.1111111
        k(   20) = (   0.5000000  -0.3333333   0.0000000), wk =   0.1111111

     Dense  grid:    73575 G-vectors     FFT dimensions: (  27,  27, 216)

     Smooth grid:    52931 G-vectors     FFT dimensions: (  25,  25, 192)

     Dynamical RAM for                 wfc:       1.21 MB

     Dynamical RAM for     wfc (w. buffer):      25.34 MB

     Dynamical RAM for           str. fact:       3.37 MB

     Dynamical RAM for           local pot:       0.00 MB

     Dynamical RAM for          nlocal pot:       4.22 MB

     Dynamical RAM for                qrad:       3.41 MB

     Dynamical RAM for          rho,v,vnew:       6.97 MB

     Dynamical RAM for               rhoin:       2.32 MB

     Dynamical RAM for            rho*nmix:      17.96 MB

     Dynamical RAM for           G-vectors:       4.61 MB

     Dynamical RAM for          h,s,v(r/c):       0.03 MB

     Dynamical RAM for          <psi|beta>:       0.01 MB

     Dynamical RAM for                 psi:       2.41 MB

     Dynamical RAM for                hpsi:       2.41 MB

     Dynamical RAM for                spsi:       2.41 MB

     Dynamical RAM for      wfcinit/wfcrot:       3.22 MB

     Dynamical RAM for           addusdens:     211.06 MB

     Estimated static dynamical RAM per process >      60.74 MB

     Estimated max dynamical RAM per process >     289.77 MB

     Check: negative core charge=   -0.000010

     Initial potential from superposition of free atoms

     starting charge   15.99859, renormalised to   16.00000

     negative rho (up, down):  1.062E-04 0.000E+00
     Starting wfcs are   16 randomized atomic wfcs

     total cpu time spent up to now is        2.3 secs

     Self-consistent Calculation

     iteration #  1     ecut=    40.00 Ry     beta= 0.70
     Davidson diagonalization with overlap

---- Real-time Memory Report at c_bands before calling an iterative solver
           262 MiB given to the printing process from OS
             0 MiB allocation reported by mallinfo(arena+hblkhd)
           952 MiB available memory on the node where the printing process lives
------------------
     ethr =  1.00E-02,  avg # of iterations =  3.0

     negative rho (up, down):  1.739E-04 0.000E+00

     total cpu time spent up to now is        5.9 secs

     total energy              =     -47.37074958 Ry
     estimated scf accuracy    <       1.15938222 Ry

     iteration #  2     ecut=    40.00 Ry     beta= 0.70
     Davidson diagonalization with overlap

---- Real-time Memory Report at c_bands before calling an iterative solver
           307 MiB given to the printing process from OS
             0 MiB allocation reported by mallinfo(arena+hblkhd)
           924 MiB available memory on the node where the printing process lives
------------------
     ethr =  7.25E-03,  avg # of iterations =  2.4

     negative rho (up, down):  2.135E-04 0.000E+00

     total cpu time spent up to now is        9.3 secs

     WARNING: integrated charge=    16.00077239, expected=    16.00000000

     total energy              =     -47.66920299 Ry
     estimated scf accuracy    <       1.21716117 Ry

     iteration #  3     ecut=    40.00 Ry     beta= 0.70
     Davidson diagonalization with overlap

---- Real-time Memory Report at c_bands before calling an iterative solver
           308 MiB given to the printing process from OS
             0 MiB allocation reported by mallinfo(arena+hblkhd)
           927 MiB available memory on the node where the printing process lives
------------------
     ethr =  7.25E-03,  avg # of iterations =  2.0

     negative rho (up, down):  1.374E-04 0.000E+00

     total cpu time spent up to now is       12.0 secs

     WARNING: integrated charge=    16.00038860, expected=    16.00000000

     total energy              =     -47.86825211 Ry
     estimated scf accuracy    <       0.01641176 Ry

     iteration #  4     ecut=    40.00 Ry     beta= 0.70
     Davidson diagonalization with overlap

---- Real-time Memory Report at c_bands before calling an iterative solver
           310 MiB given to the printing process from OS
             0 MiB allocation reported by mallinfo(arena+hblkhd)
           922 MiB available memory on the node where the printing process lives
------------------
     ethr =  1.03E-04,  avg # of iterations =  5.0

     negative rho (up, down):  1.615E-04 0.000E+00

     total cpu time spent up to now is       16.0 secs

     WARNING: integrated charge=    16.00010016, expected=    16.00000000

     total energy              =     -47.87659113 Ry
     estimated scf accuracy    <       0.00423722 Ry

     iteration #  5     ecut=    40.00 Ry     beta= 0.70
     Davidson diagonalization with overlap

---- Real-time Memory Report at c_bands before calling an iterative solver
           312 MiB given to the printing process from OS
             0 MiB allocation reported by mallinfo(arena+hblkhd)
           921 MiB available memory on the node where the printing process lives
------------------
     ethr =  2.65E-05,  avg # of iterations =  3.3

     negative rho (up, down):  1.789E-04 0.000E+00

     total cpu time spent up to now is       19.2 secs

     WARNING: integrated charge=    16.00004656, expected=    16.00000000

     total energy              =     -47.87718384 Ry
     estimated scf accuracy    <       0.00074282 Ry

     iteration #  6     ecut=    40.00 Ry     beta= 0.70
     Davidson diagonalization with overlap

---- Real-time Memory Report at c_bands before calling an iterative solver
           313 MiB given to the printing process from OS
             0 MiB allocation reported by mallinfo(arena+hblkhd)
           925 MiB available memory on the node where the printing process lives
------------------
     ethr =  4.64E-06,  avg # of iterations =  4.8

     negative rho (up, down):  1.819E-04 0.000E+00

     total cpu time spent up to now is       22.8 secs

     WARNING: integrated charge=    16.00002966, expected=    16.00000000

     total energy              =     -47.87728958 Ry
     estimated scf accuracy    <       0.00015758 Ry

     iteration #  7     ecut=    40.00 Ry     beta= 0.70
     Davidson diagonalization with overlap

---- Real-time Memory Report at c_bands before calling an iterative solver
           315 MiB given to the printing process from OS
             0 MiB allocation reported by mallinfo(arena+hblkhd)
           930 MiB available memory on the node where the printing process lives
------------------
     ethr =  9.85E-07,  avg # of iterations =  2.0

     negative rho (up, down):  1.841E-04 0.000E+00

     total cpu time spent up to now is       25.7 secs

     WARNING: integrated charge=    16.00000490, expected=    16.00000000

     total energy              =     -47.87732748 Ry
     estimated scf accuracy    <       0.00000672 Ry

     iteration #  8     ecut=    40.00 Ry     beta= 0.70
     Davidson diagonalization with overlap

---- Real-time Memory Report at c_bands before calling an iterative solver
           316 MiB given to the printing process from OS
             0 MiB allocation reported by mallinfo(arena+hblkhd)
           929 MiB available memory on the node where the printing process lives
------------------
     ethr =  4.20E-08,  avg # of iterations =  2.0

     negative rho (up, down):  1.843E-04 0.000E+00

     total cpu time spent up to now is       28.8 secs

     WARNING: integrated charge=    16.00000179, expected=    16.00000000

     total energy              =     -47.87732901 Ry
     estimated scf accuracy    <       0.00000168 Ry

     iteration #  9     ecut=    40.00 Ry     beta= 0.70
     Davidson diagonalization with overlap

---- Real-time Memory Report at c_bands before calling an iterative solver
           318 MiB given to the printing process from OS
             0 MiB allocation reported by mallinfo(arena+hblkhd)
           928 MiB available memory on the node where the printing process lives
------------------
     ethr =  1.05E-08,  avg # of iterations =  2.0

     negative rho (up, down):  1.845E-04 0.000E+00

     total cpu time spent up to now is       31.6 secs

     End of self-consistent calculation

          k = 0.0000 0.0000 0.0000 (  6623 PWs)   bands (ev):

   -16.0946 -15.4482  -5.9965  -5.4910  -3.8398  -3.8390  -3.3395  -3.3386
     0.1066   0.8331   1.8513   2.0549

     occupation numbers 
     1.0000   1.0000   1.0000   1.0000   1.0000   1.0000   1.0000   1.0000
     0.0000   0.0000   0.0000   0.0000

          k = 0.0000 0.1925 0.0000 (  6561 PWs)   bands (ev):

   -15.6611 -15.0434  -5.5806  -5.5223  -5.4616  -5.0565  -4.2774  -3.9419
     0.8782   1.6238   2.3734   2.5692

     occupation numbers 
     1.0000   1.0000   1.0000   1.0000   1.0000   1.0000   1.0000   1.0000
     0.0000   0.0000   0.0000   0.0000

          k = 0.0000 0.3849 0.0000 (  6567 PWs)   bands (ev):

   -14.4179 -13.9144  -8.6888  -8.3192  -4.9667  -4.8589  -4.2719  -3.8599
     1.0200   1.3756   1.5242   1.9955

     occupation numbers 
     1.0000   1.0000   1.0000   1.0000   1.0000   1.0000   1.0000   1.0000
     0.0000   0.0000   0.0000   0.0000

          k = 0.0000-0.5774 0.0000 (  6592 PWs)   bands (ev):

   -13.1377 -12.8697 -10.7066  -9.9878  -5.2527  -5.2324  -3.0047  -2.8307
    -0.2160   0.3428   0.7417   1.1109

     occupation numbers 
     1.0000   1.0000   1.0000   1.0000   1.0000   1.0000   1.0000   1.0000
     0.0000   0.0000   0.0000   0.0000

          k = 0.1667 0.2887 0.0000 (  6572 PWs)   bands (ev):

   -14.8169 -14.2697  -7.5509  -7.3178  -5.3944  -5.3238  -4.6767  -4.2308
     1.8636   2.2575   2.4809   2.9421

     occupation numbers 
     1.0000   1.0000   1.0000   1.0000   1.0000   1.0000   1.0000   1.0000
     0.0000   0.0000   0.0000   0.0000

          k = 0.1667 0.4811 0.0000 (  6601 PWs)   bands (ev):

   -13.3310 -12.9995  -9.9822  -9.3494  -6.4737  -6.3812  -3.2014  -2.8846
     0.3073   0.7798   2.4350   2.9989

     occupation numbers 
     1.0000   1.0000   1.0000   1.0000   1.0000   1.0000   1.0000   1.0000
     0.0000   0.0000   0.0000   0.0000

          k = 0.3333 0.5774 0.0000 (  6618 PWs)   bands (ev):

   -12.3908 -12.3407 -10.6312  -9.6423  -7.7636  -7.6127  -2.3500  -2.0935
    -0.3540   0.0846   3.9530   4.2725

     occupation numbers 
     1.0000   1.0000   1.0000   1.0000   1.0000   1.0000   1.0000   1.0000
     0.0000   0.0000   0.0000   0.0000

          k =-0.1667 0.0962 0.0000 (  6561 PWs)   bands (ev):

   -15.6611 -15.0434  -5.5808  -5.5225  -5.4611  -5.0565  -4.2769  -3.9424
     0.8782   1.6238   2.3734   2.5693

     occupation numbers 
     1.0000   1.0000   1.0000   1.0000   1.0000   1.0000   1.0000   1.0000
     0.0000   0.0000   0.0000   0.0000

          k = 0.1667 0.0962 0.0000 (  6561 PWs)   bands (ev):

   -15.6611 -15.0434  -5.5757  -5.5274  -5.4611  -5.0558  -4.2774  -3.9422
     0.8675   1.6344   2.3710   2.5801

     occupation numbers 
     1.0000   1.0000   1.0000   1.0000   1.0000   1.0000   1.0000   1.0000
     0.0000   0.0000   0.0000   0.0000

          k =-0.3333 0.1925 0.0000 (  6567 PWs)   bands (ev):

   -14.4180 -13.9143  -8.6884  -8.3196  -4.9663  -4.8593  -4.2719  -3.8599
     1.0203   1.3754   1.5240   1.9956

     occupation numbers 
     1.0000   1.0000   1.0000   1.0000   1.0000   1.0000   1.0000   1.0000
     0.0000   0.0000   0.0000   0.0000

          k = 0.3333 0.1925 0.0000 (  6567 PWs)   bands (ev):

   -14.4180 -13.9144  -8.6875  -8.3191  -4.9670  -4.8588  -4.2805  -3.8516
     0.9980   1.3835   1.6395   1.8962

     occupation numbers 
     1.0000   1.0000   1.0000   1.0000   1.0000   1.0000   1.0000   1.0000
     0.0000   0.0000   0.0000   0.0000

          k = 0.5000-0.2887 0.0000 (  6592 PWs)   bands (ev):

   -13.1380 -12.8695 -10.7059  -9.9883  -5.2523  -5.2327  -3.0045  -2.8310
    -0.2162   0.3431   0.7420   1.1105

     occupation numbers 
     1.0000   1.0000   1.0000   1.0000   1.0000   1.0000   1.0000   1.0000
     0.0000   0.0000   0.0000   0.0000

          k =-0.5000-0.2887 0.0000 (  6592 PWs)   bands (ev):

   -13.1387 -12.8697 -10.7051  -9.9872  -5.2549  -5.2303  -3.0748  -2.7568
    -0.1371   0.2506   0.7256   1.1267

     occupation numbers 
     1.0000   1.0000   1.0000   1.0000   1.0000   1.0000   1.0000   1.0000
     0.0000   0.0000   0.0000   0.0000

          k =-0.1667 0.2887 0.0000 (  6572 PWs)   bands (ev):

   -14.8169 -14.2696  -7.5522  -7.3179  -5.3941  -5.3234  -4.6736  -4.2333
     1.8507   2.2207   2.4707   3.0294

     occupation numbers 
     1.0000   1.0000   1.0000   1.0000   1.0000   1.0000   1.0000   1.0000
     0.0000   0.0000   0.0000   0.0000

          k = 0.3333 0.0000 0.0000 (  6572 PWs)   bands (ev):

   -14.8170 -14.2697  -7.5504  -7.3182  -5.3939  -5.3243  -4.6767  -4.2308
     1.8636   2.2573   2.4812   2.9417

     occupation numbers 
     1.0000   1.0000   1.0000   1.0000   1.0000   1.0000   1.0000   1.0000
     0.0000   0.0000   0.0000   0.0000

          k =-0.1667 0.4811 0.0000 (  6601 PWs)   bands (ev):

   -13.3309 -12.9994  -9.9825  -9.3497  -6.4740  -6.3807  -3.1978  -2.8863
     0.2613   0.8273   2.4352   3.0095

     occupation numbers 
     1.0000   1.0000   1.0000   1.0000   1.0000   1.0000   1.0000   1.0000
     0.0000   0.0000   0.0000   0.0000

          k =-0.3333 0.3849 0.0000 (  6601 PWs)   bands (ev):

   -13.3311 -12.9994  -9.9821  -9.3500  -6.4742  -6.3804  -3.1978  -2.8863
     0.2612   0.8275   2.4355   3.0092

     occupation numbers 
     1.0000   1.0000   1.0000   1.0000   1.0000   1.0000   1.0000   1.0000
     0.0000   0.0000   0.0000   0.0000

          k = 0.5000 0.0962 0.0000 (  6601 PWs)   bands (ev):

   -13.3314 -12.9996  -9.9810  -9.3494  -6.4741  -6.3814  -3.2207  -2.8649
     0.4057   0.6685   2.4128   3.0429

     occupation numbers 
     1.0000   1.0000   1.0000   1.0000   1.0000   1.0000   1.0000   1.0000
     0.0000   0.0000   0.0000   0.0000

          k =-0.3333-0.3849 0.0000 (  6601 PWs)   bands (ev):

   -13.3313 -12.9996  -9.9812  -9.3492  -6.4740  -6.3815  -3.2207  -2.8649
     0.4059   0.6683   2.4127   3.0428

     occupation numbers 
     1.0000   1.0000   1.0000   1.0000   1.0000   1.0000   1.0000   1.0000
     0.0000   0.0000   0.0000   0.0000

          k = 0.5000-0.0962 0.0000 (  6601 PWs)   bands (ev):

   -13.3312 -12.9994  -9.9816  -9.3499  -6.4742  -6.3808  -3.2013  -2.8847
     0.3071   0.7800   2.4354   2.9987

     occupation numbers 
     1.0000   1.0000   1.0000   1.0000   1.0000   1.0000   1.0000   1.0000
     0.0000   0.0000   0.0000   0.0000

     the Fermi energy is    -1.1582 ev

!    total energy              =     -47.87732912 Ry
     estimated scf accuracy    <       0.00000023 Ry
     smearing contrib. (-TS)   =      -0.00000000 Ry
     internal energy E=F+TS    =     -47.87732912 Ry

     The total energy is F=E-TS. E is the sum of the following terms:
     one-electron contribution =    -374.69891095 Ry
     hartree contribution      =     190.58317026 Ry
     xc contribution           =     -21.78948716 Ry
     ewald contribution        =     158.04643299 Ry
     DFT-D3 Dispersion         =      -0.01853426 Ry

     convergence has been achieved in   9 iterations

     Writing output data file ./work1/sic_gec2.save/

     init_run     :      2.05s CPU      2.10s WALL (       1 calls)
     electrons    :     28.16s CPU     29.34s WALL (       1 calls)

     Called by init_run:
     wfcinit      :      1.09s CPU      1.09s WALL (       1 calls)
     wfcinit:atom :      0.02s CPU      0.02s WALL (      20 calls)
     wfcinit:wfcr :      0.93s CPU      0.93s WALL (      20 calls)
     potinit      :      0.17s CPU      0.18s WALL (       1 calls)
     hinit0       :      0.58s CPU      0.58s WALL (       1 calls)

     Called by electrons:
     c_bands      :     21.16s CPU     21.25s WALL (       9 calls)
     sum_band     :      4.73s CPU      5.29s WALL (       9 calls)
     v_of_rho     :      0.67s CPU      0.68s WALL (      10 calls)
     v_h          :      0.04s CPU      0.04s WALL (      10 calls)
     v_xc         :      0.64s CPU      0.64s WALL (      10 calls)
     newd         :      1.64s CPU      2.20s WALL (      10 calls)
     mix_rho      :      0.10s CPU      0.10s WALL (       9 calls)
     energy_dftd3 :      0.03s CPU      0.03s WALL (       1 calls)

     Called by c_bands:
     init_us_2    :      0.79s CPU      0.81s WALL (     380 calls)
     cegterg      :     19.89s CPU     19.93s WALL (     180 calls)

     Called by sum_band:
     sum_band:wei :      0.00s CPU      0.00s WALL (       9 calls)
     sum_band:loo :      3.07s CPU      3.08s WALL (       9 calls)
     sum_band:buf :      0.03s CPU      0.03s WALL (     180 calls)
     sum_band:ini :      0.37s CPU      0.38s WALL (     180 calls)
     sum_band:cal :      0.90s CPU      0.90s WALL (     180 calls)
     sum_band:bec :      0.00s CPU      0.00s WALL (     180 calls)
     addusdens    :      1.63s CPU      2.16s WALL (       9 calls)
     addusd:skk   :      0.01s CPU      0.01s WALL (      27 calls)
     addusd:dgemm :      0.36s CPU      0.85s WALL (      27 calls)
     addusd:qvan2 :      1.04s CPU      1.05s WALL (      27 calls)

     Called by *egterg:
     cdiaghg      :      0.09s CPU      0.09s WALL (     709 calls)
     cegterg:over :      1.32s CPU      1.32s WALL (     529 calls)
     cegterg:upda :      0.72s CPU      0.72s WALL (     529 calls)
     cegterg:last :      1.78s CPU      1.79s WALL (     412 calls)
     h_psi        :     14.07s CPU     14.10s WALL (     729 calls)
     s_psi        :      2.03s CPU      2.03s WALL (     729 calls)
     g_psi        :      0.08s CPU      0.08s WALL (     529 calls)

     Called by h_psi:
     h_psi:calbec :      2.68s CPU      2.68s WALL (     729 calls)
     vloc_psi     :      9.30s CPU      9.33s WALL (     729 calls)
     add_vuspsi   :      2.00s CPU      2.00s WALL (     729 calls)

     General routines
     calbec       :      3.57s CPU      3.58s WALL (     909 calls)
     fft          :      0.36s CPU      0.37s WALL (     128 calls)
     ffts         :      0.03s CPU      0.03s WALL (      19 calls)
     fftw         :      9.10s CPU      9.13s WALL (   14430 calls)
     interpolate  :      0.05s CPU      0.05s WALL (      10 calls)


     PWSCF        :     30.39s CPU     31.77s WALL


   This run was terminated on:   4:19:46   8Aug2021            

=------------------------------------------------------------------------------=
   JOB DONE.
=------------------------------------------------------------------------------=
