
     Program PWSCF v.6.8 starts on  8Aug2021 at  4:18:24 

     This program is part of the open-source Quantum ESPRESSO suite
     for quantum simulation of materials; please cite
         "P. Giannozzi et al., J. Phys.:Condens. Matter 21 395502 (2009);
         "P. Giannozzi et al., J. Phys.:Condens. Matter 29 465901 (2017);
         "P. Giannozzi et al., J. Chem. Phys. 152 154105 (2020);
          URL http://www.quantum-espresso.org", 
     in publications or presentations arising from this work. More details at
     http://www.quantum-espresso.org/quote

     Serial version
     1018 MiB available memory on the printing compute node when the environment starts

     Waiting for input...
     Reading input from standard input

     Current dimensions of program PWSCF are:
     Max number of different atomic species (ntypx) = 10
     Max number of k-points (npk) =  40000
     Max angular momentum in pseudopotentials (lmaxx) =  4

     IMPORTANT: XC functional enforced from input :
     Exchange-correlation= PBE
                           (   1   4   3   4   0   0   0)
     Any further DFT definition will be discarded
     Please, verify this is what you really want


     --------------------------------------------
     DFT-D3 Dispersion Correction (3-body terms):
     --------------------------------------------
       Reference C6 values for interpolation: 

         atom   Coordination number   C6
         C          0.000            98.23
         C          0.987            86.49
         C          1.998            58.72
         C          2.999            51.56
         C          3.984            36.41
         Si         0.000           635.71
         Si         0.951           540.53
         Si         1.944           466.25
         Si         2.941           443.01
         Si         3.868           299.55
         Ge         0.000           727.09
         Ge         0.943           633.70
         Ge         1.945           573.31
         Ge         2.919           459.90
         Ge         3.897           360.58

       Values used:

         atom   Coordination number  R0_AB[au]  C6      C8
         C          3.008            2.750     51.31   1484.07
         Ge         3.944            3.649    361.94  33335.46
         C          2.989            2.750     51.38   1486.08
         Si         3.511            3.583    340.28  24339.43

         Molecular C6 ( Ry / a.u.^6 ) =      2665.63


     G-vector sticks info
     --------------------
     sticks:   dense  smooth     PW     G-vecs:    dense   smooth      PW
     Sum         511     421    121                73575    52931    8889

     Using Slab Decomposition



     bravais-lattice index     =            4
     lattice parameter (alat)  =       6.1397  a.u.
     unit-cell volume          =    1542.2922 (a.u.)^3
     number of atoms/cell      =            4
     number of atomic types    =            3
     number of electrons       =        16.00
     number of Kohn-Sham states=           12
     kinetic-energy cutoff     =      40.0000  Ry
     charge density cutoff     =     200.0000  Ry
     scf convergence threshold =      1.0E-06
     mixing beta               =       0.7000
     number of iterations used =            8  plain     mixing
     Exchange-correlation= PBE
                           (   1   4   3   4   0   0   0)

     celldm(1)=   6.139720  celldm(2)=   0.000000  celldm(3)=   7.694675
     celldm(4)=   0.000000  celldm(5)=   0.000000  celldm(6)=   0.000000

     crystal axes: (cart. coord. in units of alat)
               a(1) = (   1.000000   0.000000   0.000000 )  
               a(2) = (  -0.500000   0.866025   0.000000 )  
               a(3) = (   0.000000   0.000000   7.694675 )  

     reciprocal axes: (cart. coord. in units 2 pi/alat)
               b(1) = (  1.000000  0.577350 -0.000000 )  
               b(2) = (  0.000000  1.154701  0.000000 )  
               b(3) = (  0.000000 -0.000000  0.129960 )  


     PseudoPot. # 1 for C  read from file:
     ./pseudo/C.pbe-n-rrkjus_psl.1.0.0.UPF
     MD5 check sum: 1fdd950c42eb37d8afe3dd2f8d12311e
     Pseudo is Ultrasoft + core correction, Zval =  4.0
     Generated using &quot;atomic&quot; code by A. Dal Corso  v.6.3MaX
     Using radial grid of 1073 points,  4 beta functions with: 
                l(1) =   0
                l(2) =   0
                l(3) =   1
                l(4) =   1
     Q(r) pseudized with 0 coefficients 


     PseudoPot. # 2 for Ge read from file:
     ./pseudo/Ge.pbe-n-kjpaw_psl.1.0.0.UPF
     MD5 check sum: 86cd6a1ce4ead6fa7a4673d64b86017a
     Pseudo is Projector augmented-wave + core cor, Zval =  4.0
     Generated using &quot;atomic&quot; code by A. Dal Corso  v.6.3
     Shape of augmentation charge: PSQ
     Using radial grid of 1207 points,  4 beta functions with: 
                l(1) =   0
                l(2) =   0
                l(3) =   1
                l(4) =   1
     Q(r) pseudized with 0 coefficients 


     PseudoPot. # 3 for Si read from file:
     ./pseudo/Si.pbe-n-rrkjus_psl.1.0.0.UPF
     MD5 check sum: fa25574f73a70a4139f2adfbefec430c
     Pseudo is Ultrasoft + core correction, Zval =  4.0
     Generated using &quot;atomic&quot; code by A. Dal Corso  v.6.3
     Using radial grid of 1141 points,  6 beta functions with: 
                l(1) =   0
                l(2) =   0
                l(3) =   1
                l(4) =   1
                l(5) =   2
                l(6) =   2
     Q(r) pseudized with 0 coefficients 


     atomic species   valence    mass     pseudopotential
        C              4.00    12.01070     C ( 1.00)
        Ge             4.00    72.64000     Ge( 1.00)
        Si             4.00    28.08550     Si( 1.00)

      2 Sym. Ops. (no inversion) found


                                    s                        frac. trans.

      isym =  1     identity                                     

 cryst.   s( 1) = (     1          0          0      )
                  (     0          1          0      )
                  (     0          0          1      )

 cart.    s( 1) = (  1.0000000  0.0000000  0.0000000 )
                  (  0.0000000  1.0000000  0.0000000 )
                  (  0.0000000  0.0000000  1.0000000 )


      isym =  2     inv. 180 deg rotation - cart. axis [1,0,0]   

 cryst.   s( 2) = (    -1          0          0      )
                  (     1          1          0      )
                  (     0          0          1      )

 cart.    s( 2) = ( -1.0000000  0.0000000  0.0000000 )
                  (  0.0000000  1.0000000  0.0000000 )
                  (  0.0000000  0.0000000  1.0000000 )


     point group C_s (m)    
     there are  2 classes
     the character table:

       E     s    
A'     1.00  1.00
A''    1.00 -1.00

     the symmetry operations in each class and the name of the first element:

     E        1
          identity                                               
     s        2
          inv. 180 deg rotation - cart. axis [1,0,0]             

   Cartesian axes

     site n.     atom                  positions (alat units)
         1           C   tau(   1) = (   0.0000000   0.0000000   4.4272551  )
         2           Ge  tau(   2) = (   0.0000000   0.5773766   4.4272551  )
         3           C   tau(   3) = (   0.0000000   0.0000000   3.0778701  )
         4           Si  tau(   4) = (   0.0000000   0.5773766   3.0778701  )

   Crystallographic axes

     site n.     atom                  positions (cryst. coord.)
         1           C   tau(   1) = (  0.0000000  0.0000000  0.5753661  )
         2           Ge  tau(   2) = (  0.3333485  0.6666970  0.5753661  )
         3           C   tau(   3) = (  0.0000000  0.0000000  0.4000000  )
         4           Si  tau(   4) = (  0.3333485  0.6666970  0.4000000  )

     number of k points=    13  Marzari-Vanderbilt smearing, width (Ry)=  0.0050
                       cart. coord. in units 2pi/alat
        k(    1) = (   0.0000000   0.0000000   0.0000000), wk =   0.0555556
        k(    2) = (   0.0000000   0.1924501   0.0000000), wk =   0.1111111
        k(    3) = (   0.0000000   0.3849002   0.0000000), wk =   0.1111111
        k(    4) = (   0.0000000  -0.5773503   0.0000000), wk =   0.0555556
        k(    5) = (   0.1666667   0.2886751   0.0000000), wk =   0.2222222
        k(    6) = (   0.1666667   0.4811252   0.0000000), wk =   0.2222222
        k(    7) = (   0.3333333   0.5773503   0.0000000), wk =   0.1111111
        k(    8) = (  -0.1666667   0.0962250   0.0000000), wk =   0.2222222
        k(    9) = (  -0.3333333   0.1924501   0.0000000), wk =   0.2222222
        k(   10) = (   0.5000000  -0.2886751   0.0000000), wk =   0.1111111
        k(   11) = (   0.3333333   0.0000000   0.0000000), wk =   0.1111111
        k(   12) = (  -0.3333333   0.3849002   0.0000000), wk =   0.2222222
        k(   13) = (   0.5000000   0.0962250   0.0000000), wk =   0.2222222

                       cryst. coord.
        k(    1) = (   0.0000000   0.0000000   0.0000000), wk =   0.0555556
        k(    2) = (   0.0000000   0.1666667   0.0000000), wk =   0.1111111
        k(    3) = (   0.0000000   0.3333333   0.0000000), wk =   0.1111111
        k(    4) = (   0.0000000  -0.5000000   0.0000000), wk =   0.0555556
        k(    5) = (   0.1666667   0.1666667   0.0000000), wk =   0.2222222
        k(    6) = (   0.1666667   0.3333333   0.0000000), wk =   0.2222222
        k(    7) = (   0.3333333   0.3333333   0.0000000), wk =   0.1111111
        k(    8) = (  -0.1666667   0.1666667   0.0000000), wk =   0.2222222
        k(    9) = (  -0.3333333   0.3333333   0.0000000), wk =   0.2222222
        k(   10) = (   0.5000000  -0.5000000   0.0000000), wk =   0.1111111
        k(   11) = (   0.3333333  -0.1666667   0.0000000), wk =   0.1111111
        k(   12) = (  -0.3333333   0.5000000   0.0000000), wk =   0.2222222
        k(   13) = (   0.5000000  -0.1666667   0.0000000), wk =   0.2222222

     Dense  grid:    73575 G-vectors     FFT dimensions: (  27,  27, 216)

     Smooth grid:    52931 G-vectors     FFT dimensions: (  25,  25, 192)

     Dynamical RAM for                 wfc:       1.21 MB

     Dynamical RAM for     wfc (w. buffer):      16.89 MB

     Dynamical RAM for           str. fact:       3.37 MB

     Dynamical RAM for           local pot:       0.00 MB

     Dynamical RAM for          nlocal pot:       4.22 MB

     Dynamical RAM for                qrad:       3.41 MB

     Dynamical RAM for          rho,v,vnew:       6.97 MB

     Dynamical RAM for               rhoin:       2.32 MB

     Dynamical RAM for            rho*nmix:      17.96 MB

     Dynamical RAM for           G-vectors:       4.61 MB

     Dynamical RAM for          h,s,v(r/c):       0.03 MB

     Dynamical RAM for          <psi|beta>:       0.01 MB

     Dynamical RAM for                 psi:       2.41 MB

     Dynamical RAM for                hpsi:       2.41 MB

     Dynamical RAM for                spsi:       2.41 MB

     Dynamical RAM for      wfcinit/wfcrot:       3.22 MB

     Dynamical RAM for           addusdens:     211.06 MB

     Estimated static dynamical RAM per process >      52.30 MB

     Estimated max dynamical RAM per process >     281.32 MB

     Check: negative core charge=   -0.000010

     Initial potential from superposition of free atoms

     starting charge   15.99859, renormalised to   16.00000

     negative rho (up, down):  1.111E-04 0.000E+00
     Starting wfcs are   16 randomized atomic wfcs

     total cpu time spent up to now is        1.9 secs

     Self-consistent Calculation

     iteration #  1     ecut=    40.00 Ry     beta= 0.70
     Davidson diagonalization with overlap

---- Real-time Memory Report at c_bands before calling an iterative solver
           265 MiB given to the printing process from OS
             0 MiB allocation reported by mallinfo(arena+hblkhd)
           954 MiB available memory on the node where the printing process lives
------------------
     ethr =  1.00E-02,  avg # of iterations =  2.8

     negative rho (up, down):  1.939E-04 0.000E+00

     total cpu time spent up to now is        4.4 secs

     total energy              =    -199.70200484 Ry
     estimated scf accuracy    <       1.15965604 Ry

     iteration #  2     ecut=    40.00 Ry     beta= 0.70
     Davidson diagonalization with overlap

---- Real-time Memory Report at c_bands before calling an iterative solver
           302 MiB given to the printing process from OS
             0 MiB allocation reported by mallinfo(arena+hblkhd)
           929 MiB available memory on the node where the printing process lives
------------------
     ethr =  7.25E-03,  avg # of iterations =  2.5

     negative rho (up, down):  2.022E-04 0.000E+00

     total cpu time spent up to now is        6.8 secs

     total energy              =    -200.00324387 Ry
     estimated scf accuracy    <       1.21729110 Ry

     iteration #  3     ecut=    40.00 Ry     beta= 0.70
     Davidson diagonalization with overlap

---- Real-time Memory Report at c_bands before calling an iterative solver
           303 MiB given to the printing process from OS
             0 MiB allocation reported by mallinfo(arena+hblkhd)
           925 MiB available memory on the node where the printing process lives
------------------
     ethr =  7.25E-03,  avg # of iterations =  2.0

     negative rho (up, down):  1.565E-04 0.000E+00

     total cpu time spent up to now is        8.7 secs

     total energy              =    -200.20076706 Ry
     estimated scf accuracy    <       0.01261292 Ry

     iteration #  4     ecut=    40.00 Ry     beta= 0.70
     Davidson diagonalization with overlap

---- Real-time Memory Report at c_bands before calling an iterative solver
           305 MiB given to the printing process from OS
             0 MiB allocation reported by mallinfo(arena+hblkhd)
           927 MiB available memory on the node where the printing process lives
------------------
     ethr =  7.88E-05,  avg # of iterations =  5.8

     negative rho (up, down):  1.861E-04 0.000E+00

     total cpu time spent up to now is       11.6 secs

     total energy              =    -200.20846997 Ry
     estimated scf accuracy    <       0.00465411 Ry

     iteration #  5     ecut=    40.00 Ry     beta= 0.70
     Davidson diagonalization with overlap

---- Real-time Memory Report at c_bands before calling an iterative solver
           307 MiB given to the printing process from OS
             0 MiB allocation reported by mallinfo(arena+hblkhd)
           932 MiB available memory on the node where the printing process lives
------------------
     ethr =  2.91E-05,  avg # of iterations =  3.5

     negative rho (up, down):  2.044E-04 0.000E+00

     total cpu time spent up to now is       13.8 secs

     total energy              =    -200.20909923 Ry
     estimated scf accuracy    <       0.00084087 Ry

     iteration #  6     ecut=    40.00 Ry     beta= 0.70
     Davidson diagonalization with overlap

---- Real-time Memory Report at c_bands before calling an iterative solver
           308 MiB given to the printing process from OS
             0 MiB allocation reported by mallinfo(arena+hblkhd)
           931 MiB available memory on the node where the printing process lives
------------------
     ethr =  5.26E-06,  avg # of iterations =  3.8

     negative rho (up, down):  2.079E-04 0.000E+00

     total cpu time spent up to now is       16.1 secs

     total energy              =    -200.20922411 Ry
     estimated scf accuracy    <       0.00012575 Ry

     iteration #  7     ecut=    40.00 Ry     beta= 0.70
     Davidson diagonalization with overlap

---- Real-time Memory Report at c_bands before calling an iterative solver
           310 MiB given to the printing process from OS
             0 MiB allocation reported by mallinfo(arena+hblkhd)
           930 MiB available memory on the node where the printing process lives
------------------
     ethr =  7.86E-07,  avg # of iterations =  2.0

     negative rho (up, down):  2.111E-04 0.000E+00

     total cpu time spent up to now is       18.2 secs

     total energy              =    -200.20925691 Ry
     estimated scf accuracy    <       0.00000652 Ry

     iteration #  8     ecut=    40.00 Ry     beta= 0.70
     Davidson diagonalization with overlap

---- Real-time Memory Report at c_bands before calling an iterative solver
           312 MiB given to the printing process from OS
             0 MiB allocation reported by mallinfo(arena+hblkhd)
           930 MiB available memory on the node where the printing process lives
------------------
     ethr =  4.08E-08,  avg # of iterations =  2.3

     negative rho (up, down):  2.112E-04 0.000E+00

     total cpu time spent up to now is       20.4 secs

     total energy              =    -200.20925813 Ry
     estimated scf accuracy    <       0.00000178 Ry

     iteration #  9     ecut=    40.00 Ry     beta= 0.70
     Davidson diagonalization with overlap

---- Real-time Memory Report at c_bands before calling an iterative solver
           313 MiB given to the printing process from OS
             0 MiB allocation reported by mallinfo(arena+hblkhd)
           932 MiB available memory on the node where the printing process lives
------------------
     ethr =  1.11E-08,  avg # of iterations =  1.8

     negative rho (up, down):  2.114E-04 0.000E+00

     total cpu time spent up to now is       22.4 secs

     End of self-consistent calculation

          k = 0.0000 0.0000 0.0000 (  6623 PWs)   bands (ev):

   -16.0973 -15.4509  -6.0203  -5.4753  -3.8421  -3.8413  -3.3409  -3.3400
     0.0887   0.8489   1.8257   2.0393

     occupation numbers 
     1.0000   1.0000   1.0000   1.0000   1.0000   1.0000   1.0000   1.0000
     0.0000   0.0000   0.0000   0.0000

          k = 0.0000 0.1925 0.0000 (  6561 PWs)   bands (ev):

   -15.6637 -15.0461  -5.5982  -5.5318  -5.4629  -5.0399  -4.2801  -3.9438
     0.8580   1.6406   2.3458   2.5661

     occupation numbers 
     1.0000   1.0000   1.0000   1.0000   1.0000   1.0000   1.0000   1.0000
     0.0000   0.0000   0.0000   0.0000

          k = 0.0000 0.3849 0.0000 (  6567 PWs)   bands (ev):

   -14.4204 -13.9169  -8.6908  -8.3218  -4.9699  -4.8602  -4.3028  -3.8361
     0.9875   1.3797   1.4977   2.0344

     occupation numbers 
     1.0000   1.0000   1.0000   1.0000   1.0000   1.0000   1.0000   1.0000
     0.0000   0.0000   0.0000   0.0000

          k = 0.0000-0.5774 0.0000 (  6592 PWs)   bands (ev):

   -13.1404 -12.8714 -10.7090  -9.9907  -5.2580  -5.2314  -3.0972  -2.7314
    -0.3070   0.4217   0.7086   1.1218

     occupation numbers 
     1.0000   1.0000   1.0000   1.0000   1.0000   1.0000   1.0000   1.0000
     0.0000   0.0000   0.0000   0.0000

          k = 0.1667 0.2887 0.0000 (  6572 PWs)   bands (ev):

   -14.8194 -14.2722  -7.5542  -7.3200  -5.3983  -5.3241  -4.7015  -4.2134
     1.8166   2.2116   2.4722   3.0949

     occupation numbers 
     1.0000   1.0000   1.0000   1.0000   1.0000   1.0000   1.0000   1.0000
     0.0000   0.0000   0.0000   0.0000

          k = 0.1667 0.4811 0.0000 (  6601 PWs)   bands (ev):

   -13.3333 -13.0016  -9.9847  -9.3525  -6.4773  -6.3826  -3.2433  -2.8447
     0.2154   0.8587   2.4091   3.0452

     occupation numbers 
     1.0000   1.0000   1.0000   1.0000   1.0000   1.0000   1.0000   1.0000
     0.0000   0.0000   0.0000   0.0000

          k = 0.3333 0.5774 0.0000 (  6618 PWs)   bands (ev):

   -12.3935 -12.3408 -10.6355  -9.6459  -7.7674  -7.6135  -2.3817  -2.0572
    -0.4787   0.2000   3.9603   4.7980

     occupation numbers 
     1.0000   1.0000   1.0000   1.0000   1.0000   1.0000   1.0000   1.0000
     0.0000   0.0000   0.0000   0.0000

          k =-0.1667 0.0962 0.0000 (  6561 PWs)   bands (ev):

   -15.6637 -15.0461  -5.5983  -5.5320  -5.4634  -5.0399  -4.2796  -3.9433
     0.8580   1.6406   2.3458   2.5662

     occupation numbers 
     1.0000   1.0000   1.0000   1.0000   1.0000   1.0000   1.0000   1.0000
     0.0000   0.0000   0.0000   0.0000

          k =-0.3333 0.1925 0.0000 (  6567 PWs)   bands (ev):

   -14.4203 -13.9168  -8.6913  -8.3222  -4.9694  -4.8598  -4.3028  -3.8360
     0.9877   1.3797   1.4979   2.0341

     occupation numbers 
     1.0000   1.0000   1.0000   1.0000   1.0000   1.0000   1.0000   1.0000
     0.0000   0.0000   0.0000   0.0000

          k = 0.5000-0.2887 0.0000 (  6592 PWs)   bands (ev):

   -13.1401 -12.8712 -10.7097  -9.9912  -5.2576  -5.2310  -3.0970  -2.7311
    -0.3075   0.4212   0.7089   1.1221

     occupation numbers 
     1.0000   1.0000   1.0000   1.0000   1.0000   1.0000   1.0000   1.0000
     0.0000   0.0000   0.0000   0.0000

          k = 0.3333 0.0000 0.0000 (  6572 PWs)   bands (ev):

   -14.8193 -14.2722  -7.5548  -7.3204  -5.3979  -5.3236  -4.7014  -4.2134
     1.8166   2.2114   2.4720   3.0948

     occupation numbers 
     1.0000   1.0000   1.0000   1.0000   1.0000   1.0000   1.0000   1.0000
     0.0000   0.0000   0.0000   0.0000

          k =-0.3333 0.3849 0.0000 (  6601 PWs)   bands (ev):

   -13.3332 -13.0015  -9.9851  -9.3528  -6.4770  -6.3823  -3.2432  -2.8446
     0.2151   0.8584   2.4095   3.0455

     occupation numbers 
     1.0000   1.0000   1.0000   1.0000   1.0000   1.0000   1.0000   1.0000
     0.0000   0.0000   0.0000   0.0000

          k = 0.5000 0.0962 0.0000 (  6601 PWs)   bands (ev):

   -13.3331 -13.0015  -9.9853  -9.3529  -6.4769  -6.3822  -3.2431  -2.8445
     0.2150   0.8583   2.4095   3.0455

     occupation numbers 
     1.0000   1.0000   1.0000   1.0000   1.0000   1.0000   1.0000   1.0000
     0.0000   0.0000   0.0000   0.0000

     the Fermi energy is    -1.4767 ev

!    total energy              =    -200.20925809 Ry
     estimated scf accuracy    <       0.00000036 Ry
     smearing contrib. (-TS)   =       0.00000000 Ry
     internal energy E=F+TS    =    -200.20925809 Ry

     The total energy is F=E-TS. E is the sum of the following terms:
     one-electron contribution =    -377.46765177 Ry
     hartree contribution      =     192.18225011 Ry
     xc contribution           =     -21.79044044 Ry
     ewald contribution        =     159.64971049 Ry
     DFT-D3 Dispersion         =      -0.01874537 Ry
     one-center paw contrib.   =    -152.76438111 Ry
      -> PAW hartree energy AE =       4.87306684 Ry
      -> PAW hartree energy PS =      -4.86860766 Ry
      -> PAW xc energy AE      =    -159.08259662 Ry
      -> PAW xc energy PS      =       6.31375633 Ry
      -> total E_H with PAW    =     192.18670929 Ry
      -> total E_XC with PAW   =    -174.55928073 Ry

     convergence has been achieved in   9 iterations

     Writing output data file ./work1/sic_gec1.save/

     init_run     :      1.62s CPU      1.69s WALL (       1 calls)
     electrons    :     19.37s CPU     20.54s WALL (       1 calls)

     Called by init_run:
     wfcinit      :      0.68s CPU      0.68s WALL (       1 calls)
     wfcinit:atom :      0.01s CPU      0.01s WALL (      13 calls)
     wfcinit:wfcr :      0.58s CPU      0.58s WALL (      13 calls)
     potinit      :      0.22s CPU      0.22s WALL (       1 calls)
     hinit0       :      0.55s CPU      0.55s WALL (       1 calls)

     Called by electrons:
     c_bands      :     13.31s CPU     13.37s WALL (       9 calls)
     sum_band     :      3.47s CPU      4.04s WALL (       9 calls)
     v_of_rho     :      0.68s CPU      0.69s WALL (      10 calls)
     v_h          :      0.04s CPU      0.04s WALL (      10 calls)
     v_xc         :      0.64s CPU      0.65s WALL (      10 calls)
     newd         :      1.64s CPU      2.21s WALL (      10 calls)
     PAW_pot      :      0.30s CPU      0.30s WALL (      10 calls)
     mix_rho      :      0.10s CPU      0.10s WALL (       9 calls)
     energy_dftd3 :      0.03s CPU      0.03s WALL (       1 calls)

     Called by c_bands:
     init_us_2    :      0.50s CPU      0.51s WALL (     247 calls)
     cegterg      :     12.47s CPU     12.50s WALL (     117 calls)

     Called by sum_band:
     sum_band:wei :      0.00s CPU      0.00s WALL (       9 calls)
     sum_band:loo :      1.79s CPU      1.80s WALL (       9 calls)
     sum_band:buf :      0.02s CPU      0.02s WALL (     117 calls)
     sum_band:ini :      0.22s CPU      0.23s WALL (     117 calls)
     sum_band:cal :      0.54s CPU      0.54s WALL (     117 calls)
     sum_band:bec :      0.00s CPU      0.00s WALL (     117 calls)
     addusdens    :      1.61s CPU      2.17s WALL (       9 calls)
     addusd:skk   :      0.01s CPU      0.01s WALL (      27 calls)
     addusd:dgemm :      0.38s CPU      0.89s WALL (      27 calls)
     addusd:qvan2 :      1.01s CPU      1.01s WALL (      27 calls)

     Called by *egterg:
     cdiaghg      :      0.06s CPU      0.06s WALL (     462 calls)
     cegterg:over :      0.84s CPU      0.84s WALL (     345 calls)
     cegterg:upda :      0.46s CPU      0.46s WALL (     345 calls)
     cegterg:last :      1.12s CPU      1.12s WALL (     264 calls)
     h_psi        :      8.76s CPU      8.78s WALL (     475 calls)
     s_psi        :      1.29s CPU      1.30s WALL (     475 calls)
     g_psi        :      0.05s CPU      0.05s WALL (     345 calls)

     Called by h_psi:
     h_psi:calbec :      1.73s CPU      1.74s WALL (     475 calls)
     vloc_psi     :      5.68s CPU      5.69s WALL (     475 calls)
     add_vuspsi   :      1.29s CPU      1.29s WALL (     475 calls)

     General routines
     calbec       :      2.27s CPU      2.28s WALL (     592 calls)
     fft          :      0.37s CPU      0.37s WALL (     128 calls)
     ffts         :      0.03s CPU      0.03s WALL (      19 calls)
     fftw         :      5.52s CPU      5.53s WALL (    9348 calls)
     interpolate  :      0.06s CPU      0.06s WALL (      10 calls)


     PAW routines
     PAW_pot      :      0.30s CPU      0.30s WALL (      10 calls)
     PAW_symme    :      0.00s CPU      0.00s WALL (      19 calls)

     PWSCF        :     21.20s CPU     22.54s WALL


   This run was terminated on:   4:18:47   8Aug2021            

=------------------------------------------------------------------------------=
   JOB DONE.
=------------------------------------------------------------------------------=
