
     Program PWSCF v.6.3 starts on 25Aug2020 at  4:36:13 

     This program is part of the open-source Quantum ESPRESSO suite
     for quantum simulation of materials; please cite
         "P. Giannozzi et al., J. Phys.:Condens. Matter 21 395502 (2009);
         "P. Giannozzi et al., J. Phys.:Condens. Matter 29 465901 (2017);
          URL http://www.quantum-espresso.org", 
     in publications or presentations arising from this work. More details at
     http://www.quantum-espresso.org/quote

     Parallel version (MPI), running on     1 processors

     MPI processes distributed on     1 nodes
     Waiting for input...
     Reading input from standard input

     Current dimensions of program PWSCF are:
     Max number of different atomic species (ntypx) = 10
     Max number of k-points (npk) =  40000
     Max angular momentum in pseudopotentials (lmaxx) =  3

     Atomic positions and unit cell read from directory:
     ./work/h2.save/


     IMPORTANT: XC functional enforced from input :
     Exchange-correlation      = PBE ( 1  4  3  4 0 0)
     Any further DFT definition will be discarded
     Please, verify this is what you really want

               file Ge.pbe-mt_fhi.UPF: wavefunction(s)  4d 4f renormalized
               file C.pbe-mt_fhi.UPF: wavefunction(s)  4f renormalized
               file Si.pbe-mt_fhi.UPF: wavefunction(s)  4f renormalized

     -------------------------------------------------
     Parameters for Dispersion (Grimme-D2) Correction:
     -------------------------------------------------
       atom      VdW radius       C_6     

        Ge         3.264        593.221
        C          2.744         60.710
        Si         3.243        320.200

     Subspace diagonalization in iterative solution of the eigenvalue problem:
     a serial algorithm will be used


     G-vector sticks info
     --------------------
     sticks:   dense  smooth     PW     G-vecs:    dense   smooth      PW
     Sum        4429    4429   1177               388955   388955   53541



     bravais-lattice index     =            4
     lattice parameter (alat)  =      23.1302  a.u.
     unit-cell volume          =   17511.3678 (a.u.)^3
     number of atoms/cell      =           50
     number of atomic types    =            3
     number of electrons       =       200.00
     number of Kohn-Sham states=          120
     kinetic-energy cutoff     =      30.0000  Ry
     charge density cutoff     =     120.0000  Ry
     Exchange-correlation      = PBE ( 1  4  3  4 0 0)

     celldm(1)=  23.130248  celldm(2)=   0.000000  celldm(3)=   1.633987
     celldm(4)=   0.000000  celldm(5)=   0.000000  celldm(6)=   0.000000

     crystal axes: (cart. coord. in units of alat)
               a(1) = (   1.000000   0.000000   0.000000 )  
               a(2) = (  -0.500000   0.866025   0.000000 )  
               a(3) = (   0.000000   0.000000   1.633987 )  

     reciprocal axes: (cart. coord. in units 2 pi/alat)
               b(1) = (  1.000000  0.577350 -0.000000 )  
               b(2) = (  0.000000  1.154701  0.000000 )  
               b(3) = (  0.000000 -0.000000  0.612000 )  


     PseudoPot. # 1 for Ge read from file:
     ./pseudo/Ge.pbe-mt_fhi.UPF
     MD5 check sum: b08ff19c3d362044f6e29226b459d86a
     Pseudo is Norm-conserving, Zval =  4.0
     Generated using FHI98PP, converted with fhi2upf.x v.5.0.2
     Using radial grid of  529 points,  3 beta functions with: 
                l(1) =   1
                l(2) =   2
                l(3) =   3

     PseudoPot. # 2 for C  read from file:
     ./pseudo/C.pbe-mt_fhi.UPF
     MD5 check sum: 058ca341f9d6d5327d9962fd88a91b65
     Pseudo is Norm-conserving, Zval =  4.0
     Generated using FHI98PP, converted with fhi2upf.x v.5.0.2
     Using radial grid of  461 points,  3 beta functions with: 
                l(1) =   0
                l(2) =   1
                l(3) =   3

     PseudoPot. # 3 for Si read from file:
     ./pseudo/Si.pbe-mt_fhi.UPF
     MD5 check sum: 259057c2adf9952f9ced37ae3d9e311d
     Pseudo is Norm-conserving, Zval =  4.0
     Generated using FHI98PP, converted with fhi2upf.x v.5.0.2
     Using radial grid of  495 points,  3 beta functions with: 
                l(1) =   0
                l(2) =   1
                l(3) =   3

     atomic species   valence    mass     pseudopotential
        Ge             4.00    72.59000     Ge( 1.00)
        C              4.00    12.01070     C ( 1.00)
        Si             4.00    28.08550     Si( 1.00)

      6 Sym. Ops. (no inversion) found



   Cartesian axes

     site n.     atom                  positions (alat units)
         1           Ge  tau(   1) = (   0.0000000   0.0000000   0.2634804  )
         2           Ge  tau(   2) = (   0.0000000   0.1924510   0.3183824  )
         3           Ge  tau(   3) = (  -0.1666667   0.2886751   0.2634804  )
         4           Ge  tau(   4) = (  -0.1666667   0.4811261   0.3183824  )
         5           Ge  tau(   5) = (  -0.3333333   0.5773503   0.2634804  )
         6           Ge  tau(   6) = (  -0.3333333   0.7698012   0.3183824  )
         7           Ge  tau(   7) = (   0.3333333   0.0000000   0.2634804  )
         8           Ge  tau(   8) = (   0.3333333   0.1924510   0.3183824  )
         9           Ge  tau(   9) = (   0.1666667   0.2886751   0.2634804  )
        10           Ge  tau(  10) = (   0.1666667   0.4811261   0.3183824  )
        11           Ge  tau(  11) = (   0.0000000   0.5773503   0.2634804  )
        12           Ge  tau(  12) = (   0.0000000   0.7698012   0.3183824  )
        13           Ge  tau(  13) = (   0.6666667   0.0000000   0.2634804  )
        14           Ge  tau(  14) = (   0.6666667   0.1924510   0.3183824  )
        15           Ge  tau(  15) = (   0.5000000   0.2886751   0.2634804  )
        16           Ge  tau(  16) = (   0.5000000   0.4811261   0.3183824  )
        17           Ge  tau(  17) = (   0.3333333   0.5773503   0.2634804  )
        18           Ge  tau(  18) = (   0.3333333   0.7698012   0.3183824  )
        19           C   tau(  19) = (   0.0000000   0.0000000   0.0000000  )
        20           Si  tau(  20) = (   0.0000000   0.1443382   0.0000000  )
        21           C   tau(  21) = (  -0.1250000   0.2165064   0.0000000  )
        22           Si  tau(  22) = (  -0.1250000   0.3608446   0.0000000  )
        23           C   tau(  23) = (  -0.2500000   0.4330127   0.0000000  )
        24           Si  tau(  24) = (  -0.2500000   0.5773509   0.0000000  )
        25           C   tau(  25) = (  -0.3750000   0.6495191   0.0000000  )
        26           Si  tau(  26) = (  -0.3750000   0.7938573   0.0000000  )
        27           C   tau(  27) = (   0.2500000   0.0000000   0.0000000  )
        28           Si  tau(  28) = (   0.2500000   0.1443382   0.0000000  )
        29           C   tau(  29) = (   0.1250000   0.2165064   0.0000000  )
        30           Si  tau(  30) = (   0.1250000   0.3608446   0.0000000  )
        31           C   tau(  31) = (   0.0000000   0.4330127   0.0000000  )
        32           Si  tau(  32) = (   0.0000000   0.5773509   0.0000000  )
        33           C   tau(  33) = (  -0.1250000   0.6495191   0.0000000  )
        34           Si  tau(  34) = (  -0.1250000   0.7938573   0.0000000  )
        35           C   tau(  35) = (   0.5000000   0.0000000   0.0000000  )
        36           Si  tau(  36) = (   0.5000000   0.1443382   0.0000000  )
        37           C   tau(  37) = (   0.3750000   0.2165064   0.0000000  )
        38           Si  tau(  38) = (   0.3750000   0.3608446   0.0000000  )
        39           C   tau(  39) = (   0.2500000   0.4330127   0.0000000  )
        40           Si  tau(  40) = (   0.2500000   0.5773509   0.0000000  )
        41           C   tau(  41) = (   0.1250000   0.6495191   0.0000000  )
        42           Si  tau(  42) = (   0.1250000   0.7938573   0.0000000  )
        43           C   tau(  43) = (   0.7500000   0.0000000   0.0000000  )
        44           Si  tau(  44) = (   0.7500000   0.1443382   0.0000000  )
        45           C   tau(  45) = (   0.6250000   0.2165064   0.0000000  )
        46           Si  tau(  46) = (   0.6250000   0.3608446   0.0000000  )
        47           C   tau(  47) = (   0.5000000   0.4330127   0.0000000  )
        48           Si  tau(  48) = (   0.5000000   0.5773509   0.0000000  )
        49           C   tau(  49) = (   0.3750000   0.6495191   0.0000000  )
        50           Si  tau(  50) = (   0.3750000   0.7938573   0.0000000  )

     number of k points=    61  Methfessel-Paxton smearing, width (Ry)=  0.0060
                       cart. coord. in units 2pi/alat
        k(    1) = (   0.0000000   0.5773503   0.0000000), wk =   0.0327869
        k(    2) = (   0.0166667   0.5773503   0.0000000), wk =   0.0327869
        k(    3) = (   0.0333333   0.5773503   0.0000000), wk =   0.0327869
        k(    4) = (   0.0500000   0.5773503   0.0000000), wk =   0.0327869
        k(    5) = (   0.0666667   0.5773503   0.0000000), wk =   0.0327869
        k(    6) = (   0.0833333   0.5773503   0.0000000), wk =   0.0327869
        k(    7) = (   0.1000000   0.5773503   0.0000000), wk =   0.0327869
        k(    8) = (   0.1166667   0.5773502   0.0000000), wk =   0.0327869
        k(    9) = (   0.1333333   0.5773502   0.0000000), wk =   0.0327869
        k(   10) = (   0.1500000   0.5773502   0.0000000), wk =   0.0327869
        k(   11) = (   0.1666666   0.5773502   0.0000000), wk =   0.0327869
        k(   12) = (   0.1833333   0.5773502   0.0000000), wk =   0.0327869
        k(   13) = (   0.2000000   0.5773502   0.0000000), wk =   0.0327869
        k(   14) = (   0.2166666   0.5773502   0.0000000), wk =   0.0327869
        k(   15) = (   0.2333333   0.5773502   0.0000000), wk =   0.0327869
        k(   16) = (   0.2500000   0.5773502   0.0000000), wk =   0.0327869
        k(   17) = (   0.2666666   0.5773502   0.0000000), wk =   0.0327869
        k(   18) = (   0.2833333   0.5773502   0.0000000), wk =   0.0327869
        k(   19) = (   0.3000000   0.5773502   0.0000000), wk =   0.0327869
        k(   20) = (   0.3166666   0.5773502   0.0000000), wk =   0.0327869
        k(   21) = (   0.3333333   0.5773502   0.0000000), wk =   0.0327869
        k(   22) = (   0.3166666   0.5484827   0.0000000), wk =   0.0327869
        k(   23) = (   0.3000000   0.5196152   0.0000000), wk =   0.0327869
        k(   24) = (   0.2833333   0.4907477   0.0000000), wk =   0.0327869
        k(   25) = (   0.2666666   0.4618802   0.0000000), wk =   0.0327869
        k(   26) = (   0.2500000   0.4330127   0.0000000), wk =   0.0327869
        k(   27) = (   0.2333333   0.4041451   0.0000000), wk =   0.0327869
        k(   28) = (   0.2166666   0.3752776   0.0000000), wk =   0.0327869
        k(   29) = (   0.2000000   0.3464101   0.0000000), wk =   0.0327869
        k(   30) = (   0.1833333   0.3175426   0.0000000), wk =   0.0327869
        k(   31) = (   0.1666666   0.2886751   0.0000000), wk =   0.0327869
        k(   32) = (   0.1500000   0.2598076   0.0000000), wk =   0.0327869
        k(   33) = (   0.1333333   0.2309401   0.0000000), wk =   0.0327869
        k(   34) = (   0.1166667   0.2020726   0.0000000), wk =   0.0327869
        k(   35) = (   0.1000000   0.1732051   0.0000000), wk =   0.0327869
        k(   36) = (   0.0833333   0.1443376   0.0000000), wk =   0.0327869
        k(   37) = (   0.0666667   0.1154700   0.0000000), wk =   0.0327869
        k(   38) = (   0.0500000   0.0866025   0.0000000), wk =   0.0327869
        k(   39) = (   0.0333333   0.0577350   0.0000000), wk =   0.0327869
        k(   40) = (   0.0166667   0.0288675   0.0000000), wk =   0.0327869
        k(   41) = (   0.0000000   0.0000000   0.0000000), wk =   0.0327869
        k(   42) = (   0.0000000   0.0288675   0.0000000), wk =   0.0327869
        k(   43) = (   0.0000000   0.0577350   0.0000000), wk =   0.0327869
        k(   44) = (   0.0000000   0.0866025   0.0000000), wk =   0.0327869
        k(   45) = (   0.0000000   0.1154701   0.0000000), wk =   0.0327869
        k(   46) = (   0.0000000   0.1443376   0.0000000), wk =   0.0327869
        k(   47) = (   0.0000000   0.1732051   0.0000000), wk =   0.0327869
        k(   48) = (   0.0000000   0.2020726   0.0000000), wk =   0.0327869
        k(   49) = (   0.0000000   0.2309401   0.0000000), wk =   0.0327869
        k(   50) = (   0.0000000   0.2598076   0.0000000), wk =   0.0327869
        k(   51) = (   0.0000000   0.2886751   0.0000000), wk =   0.0327869
        k(   52) = (   0.0000000   0.3175426   0.0000000), wk =   0.0327869
        k(   53) = (   0.0000000   0.3464102   0.0000000), wk =   0.0327869
        k(   54) = (   0.0000000   0.3752777   0.0000000), wk =   0.0327869
        k(   55) = (   0.0000000   0.4041452   0.0000000), wk =   0.0327869
        k(   56) = (   0.0000000   0.4330127   0.0000000), wk =   0.0327869
        k(   57) = (   0.0000000   0.4618802   0.0000000), wk =   0.0327869
        k(   58) = (   0.0000000   0.4907477   0.0000000), wk =   0.0327869
        k(   59) = (   0.0000000   0.5196152   0.0000000), wk =   0.0327869
        k(   60) = (   0.0000000   0.5484828   0.0000000), wk =   0.0327869
        k(   61) = (   0.0000000   0.5773503   0.0000000), wk =   0.0327869

     Dense  grid:   388955 G-vectors     FFT dimensions: (  81,  81, 135)

     Estimated max dynamical RAM per process >       1.85 GB

     The potential is recalculated from file :
     ./work/h2.save/charge-density.dat

     Starting wfcs are  800 randomized atomic wfcs

     Band Structure Calculation
     Davidson diagonalization with overlap

     ethr =  5.00E-08,  avg # of iterations = 28.7

     total cpu time spent up to now is    16659.1 secs

     End of band structure calculation

          k = 0.0000 0.5774 0.0000 ( 48666 PWs)   bands (ev):

   -15.6699 -15.6428 -15.1423 -15.1387 -14.1703 -14.1692 -14.1685 -14.1676
   -13.7555 -13.7186 -13.0449 -13.0238 -13.0108 -12.9908 -12.4308 -12.4284
   -11.7203 -11.6998 -11.1395 -11.1367 -10.1343 -10.1310 -10.1192 -10.1136
   -10.0361  -9.4693  -9.4542  -9.4351  -9.4236  -9.3869  -9.3852  -8.7366
    -8.7156  -8.2185  -7.9548  -7.9540  -7.9427  -7.9383  -7.6548  -7.6519
    -7.6507  -7.6499  -7.2961  -7.2941  -6.3011  -6.2996  -5.9536  -5.9214
    -5.7041  -5.7037  -5.6985  -5.6847  -5.6785  -5.6631  -5.1951  -5.1924
    -5.1871  -5.1847  -5.1621  -5.1606  -4.6448  -4.6336  -4.6262  -4.6186
    -4.3267  -4.2986  -4.2689  -4.2559  -4.2328  -4.2318  -4.2311  -4.2246
    -3.8505  -3.8136  -3.8112  -3.7961  -3.7927  -3.6191  -3.5493  -3.5210
    -3.0654  -3.0477  -2.8983  -2.8754  -2.8634  -2.8082  -2.8009  -2.7065
    -2.7044  -2.4237  -2.4220  -2.1709  -2.1566  -1.8883  -1.8750  -1.7069
    -1.5686  -1.5678  -1.5469  -1.5395  -0.2812  -0.2251  -0.0516   0.0372
     0.0583   0.5691   0.6445   0.6450   0.8676   0.8801   0.8982   0.9746
     1.2236   1.2790   1.2977   1.3260   1.7240   1.7725   1.8590   1.9132

          k = 0.0167 0.5774 0.0000 ( 48606 PWs)   bands (ev):

   -15.6696 -15.6425 -15.1655 -15.1149 -14.1920 -14.1913 -14.1462 -14.1454
   -13.7552 -13.7182 -13.0634 -13.0344 -13.0013 -12.9724 -12.4405 -12.4186
   -11.7200 -11.6995 -11.1657 -11.1099 -10.1469 -10.1433 -10.1068 -10.1015
   -10.0356  -9.4870  -9.4609  -9.4276  -9.4047  -9.3979  -9.3712  -8.7364
    -8.7153  -8.2186  -7.9827  -7.9719  -7.9223  -7.9117  -7.7011  -7.6998
    -7.6038  -7.6026  -7.3355  -7.2513  -6.3511  -6.2502  -5.9535  -5.9211
    -5.7581  -5.7231  -5.7082  -5.6573  -5.6468  -5.6354  -5.1998  -5.1892
    -5.1870  -5.1835  -5.1730  -5.1448  -4.6447  -4.6341  -4.6268  -4.6183
    -4.3298  -4.3000  -4.2899  -4.2550  -4.2533  -4.2257  -4.2094  -4.2054
    -3.8502  -3.8202  -3.8037  -3.8023  -3.7856  -3.6189  -3.5470  -3.5187
    -3.0786  -3.0434  -2.9178  -2.8658  -2.8561  -2.8073  -2.7927  -2.7064
    -2.7043  -2.4442  -2.4006  -2.1796  -2.1477  -1.8895  -1.8762  -1.7058
    -1.5827  -1.5605  -1.5505  -1.5298  -0.2818  -0.2249  -0.0518   0.0348
     0.0601   0.5686   0.6313   0.6622   0.8697   0.8800   0.9004   0.9743
     1.2239   1.2803   1.2989   1.3262   1.7185   1.7772   1.8591   1.9134

          k = 0.0333 0.5774 0.0000 ( 48590 PWs)   bands (ev):

   -15.6690 -15.6419 -15.1902 -15.0890 -14.2145 -14.2137 -14.1230 -14.1222
   -13.7546 -13.7177 -13.0909 -13.0617 -12.9762 -12.9466 -12.4515 -12.4080
   -11.7193 -11.6987 -11.1930 -11.0813 -10.1653 -10.1618 -10.0898 -10.0839
   -10.0344  -9.5110  -9.4842  -9.4134  -9.4019  -9.3761  -9.3546  -8.7360
    -8.7150  -8.2190  -8.0116  -8.0006  -7.8921  -7.8816  -7.7514  -7.7502
    -7.5555  -7.5543  -7.3743  -7.2075  -6.4028  -6.2014  -5.9540  -5.9208
    -5.8146  -5.7537  -5.7388  -5.6253  -5.6114  -5.5819  -5.2088  -5.1873
    -5.1860  -5.1815  -5.1790  -5.1257  -4.6485  -4.6358  -4.6288  -4.6214
    -4.3456  -4.3114  -4.2988  -4.2769  -4.2743  -4.1942  -4.1863  -4.1825
    -3.8496  -3.8269  -3.8090  -3.7943  -3.7762  -3.6186  -3.5492  -3.5211
    -3.1038  -3.0445  -2.9466  -2.8718  -2.8299  -2.7984  -2.7761  -2.7063
    -2.7042  -2.4650  -2.3779  -2.1927  -2.1318  -1.8930  -1.8798  -1.7027
    -1.5978  -1.5725  -1.5384  -1.5174  -0.2836  -0.2246  -0.0522   0.0289
     0.0640   0.5658   0.6238   0.6821   0.8752   0.8801   0.9067   0.9734
     1.2249   1.2831   1.3030   1.3271   1.7054   1.7873   1.8591   1.9136

          k = 0.0500 0.5774 0.0000 ( 48588 PWs)   bands (ev):

   -15.6678 -15.6408 -15.2146 -15.0627 -14.2367 -14.2359 -14.0994 -14.0987
   -13.7536 -13.7167 -13.1201 -13.0909 -12.9508 -12.9208 -12.4628 -12.3977
   -11.7180 -11.6975 -11.2198 -11.0524 -10.1845 -10.1811 -10.0733 -10.0663
   -10.0322  -9.5338  -9.5070  -9.4271  -9.3763  -9.3519  -9.3327  -8.7353
    -8.7143  -8.2196  -8.0400  -8.0289  -7.8615  -7.8511  -7.8015  -7.8003
    -7.5078  -7.5065  -7.4122  -7.1627  -6.4552  -6.1543  -5.9554  -5.9199
    -5.8692  -5.7846  -5.7699  -5.5939  -5.5796  -5.5246  -5.2193  -5.1876
    -5.1842  -5.1804  -5.1786  -5.1048  -4.6543  -4.6386  -4.6322  -4.6257
    -4.3741  -4.3190  -4.3023  -4.2987  -4.2958  -4.1634  -4.1626  -4.1594
    -3.8484  -3.8327  -3.8148  -3.7842  -3.7660  -3.6179  -3.5517  -3.5237
    -3.1337  -3.0549  -2.9769  -2.8820  -2.8031  -2.7809  -2.7554  -2.7059
    -2.7039  -2.4851  -2.3546  -2.2068  -2.1182  -1.8989  -1.8856  -1.6977
    -1.6134  -1.5865  -1.5254  -1.5055  -0.2866  -0.2242  -0.0530   0.0212
     0.0681   0.5595   0.6243   0.7039   0.8773   0.8873   0.9171   0.9722
     1.2268   1.2856   1.3104   1.3295   1.6891   1.7986   1.8593   1.9142

          k = 0.0667 0.5774 0.0000 ( 48594 PWs)   bands (ev):

   -15.6663 -15.6392 -15.2386 -15.0362 -14.2585 -14.2578 -14.0756 -14.0748
   -13.7523 -13.7153 -13.1500 -13.1209 -12.9258 -12.8957 -12.4742 -12.3877
   -11.7164 -11.6958 -11.2462 -11.0232 -10.2040 -10.2007 -10.0580 -10.0491
   -10.0286  -9.5558  -9.5291  -9.4410  -9.3552  -9.3274  -9.3052  -8.7345
    -8.7134  -8.2206  -8.0678  -8.0566  -7.8519  -7.8507  -7.8304  -7.8202
    -7.4605  -7.4592  -7.4487  -7.1167  -6.5081  -6.1092  -5.9653  -5.9225
    -5.9115  -5.8157  -5.8011  -5.5622  -5.5478  -5.4670  -5.2286  -5.1875
    -5.1844  -5.1772  -5.1749  -5.0837  -4.6619  -4.6434  -4.6375  -4.6310
    -4.4071  -4.3256  -4.3199  -4.3178  -4.3057  -4.1394  -4.1357  -4.1312
    -3.8468  -3.8375  -3.8196  -3.7734  -3.7552  -3.6169  -3.5557  -3.5279
    -3.1665  -3.0730  -3.0088  -2.8963  -2.7763  -2.7574  -2.7328  -2.7054
    -2.7035  -2.5044  -2.3312  -2.2209  -2.1051  -1.9070  -1.8937  -1.6908
    -1.6294  -1.6011  -1.5129  -1.4941  -0.2905  -0.2238  -0.0541   0.0125
     0.0717   0.5503   0.6322   0.7270   0.8762   0.9013   0.9315   0.9709
     1.2298   1.2870   1.3179   1.3366   1.6712   1.8093   1.8595   1.9149

          k = 0.0833 0.5774 0.0000 ( 48584 PWs)   bands (ev):

   -15.6643 -15.6372 -15.2621 -15.0092 -14.2801 -14.2793 -14.0514 -14.0507
   -13.7506 -13.7137 -13.1804 -13.1515 -12.9017 -12.8713 -12.4857 -12.3780
   -11.7142 -11.6936 -11.2723 -10.9935 -10.2237 -10.2204 -10.0452 -10.0323
   -10.0226  -9.5762  -9.5496  -9.4550  -9.3397  -9.2981  -9.2737  -8.7333
    -8.7123  -8.2218  -8.0948  -8.0835  -7.9020  -7.9008  -7.7993  -7.7893
    -7.4832  -7.4143  -7.4130  -7.0697  -6.5612  -6.0667  -6.0032  -5.9357
    -5.9156  -5.8464  -5.8319  -5.5302  -5.5159  -5.4088  -5.2359  -5.1858
    -5.1833  -5.1724  -5.1703  -5.0602  -4.6736  -4.6513  -4.6446  -4.6376
    -4.4416  -4.3437  -4.3406  -4.3287  -4.3109  -4.1152  -4.1114  -4.1002
    -3.8443  -3.8412  -3.8233  -3.7619  -3.7436  -3.6152  -3.5586  -3.5310
    -3.2009  -3.0949  -3.0401  -2.9141  -2.7500  -2.7300  -2.7102  -2.7041
    -2.7020  -2.5230  -2.3074  -2.2344  -2.0921  -1.9171  -1.9039  -1.6823
    -1.6457  -1.6159  -1.5010  -1.4834  -0.2950  -0.2235  -0.0555   0.0036
     0.0748   0.5400   0.6456   0.7513   0.8750   0.9193   0.9496   0.9702
     1.2341   1.2879   1.3217   1.3516   1.6526   1.8190   1.8598   1.9157

          k = 0.1000 0.5774 0.0000 ( 48562 PWs)   bands (ev):

   -15.6619 -15.6348 -15.2853 -14.9818 -14.3013 -14.3005 -14.0270 -14.0263
   -13.7485 -13.7116 -13.2115 -13.1827 -12.8786 -12.8479 -12.4971 -12.3685
   -11.7115 -11.6909 -11.2980 -10.9634 -10.2434 -10.2403 -10.0361 -10.0164
   -10.0129  -9.5956  -9.5691  -9.4687  -9.3270  -9.2658  -9.2404  -8.7320
    -8.7110  -8.2233  -8.1210  -8.1097  -7.9520  -7.9510  -7.7681  -7.7583
    -7.5153  -7.3687  -7.3674  -7.0207  -6.6146  -6.0567  -6.0267  -5.9378
    -5.9143  -5.8773  -5.8630  -5.4984  -5.4843  -5.3519  -5.2400  -5.1823
    -5.1799  -5.1664  -5.1645  -5.0357  -4.6859  -4.6623  -4.6517  -4.6444
    -4.4765  -4.3645  -4.3616  -4.3354  -4.3173  -4.0909  -4.0871  -4.0706
    -3.8438  -3.8421  -3.8258  -3.7500  -3.7316  -3.6142  -3.5634  -3.5362
    -3.2363  -3.1195  -3.0714  -2.9354  -2.7253  -2.7090  -2.7033  -2.6938
    -2.6839  -2.5406  -2.2850  -2.2450  -2.0786  -1.9291  -1.9159  -1.6731
    -1.6619  -1.6304  -1.4899  -1.4734  -0.3001  -0.2235  -0.0572  -0.0055
     0.0772   0.5296   0.6630   0.7761   0.8742   0.9408   0.9679   0.9738
     1.2395   1.2884   1.3234   1.3716   1.6335   1.8269   1.8597   1.9162

          k = 0.1167 0.5774 0.0000 ( 48566 PWs)   bands (ev):

   -15.6592 -15.6320 -15.3081 -14.9540 -14.3222 -14.3214 -14.0025 -14.0018
   -13.7459 -13.7090 -13.2429 -13.2143 -12.8564 -12.8255 -12.5087 -12.3596
   -11.7083 -11.6878 -11.3232 -10.9331 -10.2633 -10.2601 -10.0297 -10.0018
   -10.0002  -9.6129  -9.5865  -9.4830  -9.3170  -9.2317  -9.2057  -8.7304
    -8.7093  -8.2250  -8.1465  -8.1352  -8.0008  -7.9999  -7.7369  -7.7272
    -7.5465  -7.3247  -7.3234  -6.9726  -6.6683  -6.1133  -5.9913  -5.9364
    -5.9126  -5.9077  -5.8937  -5.4661  -5.4523  -5.2956  -5.2399  -5.1784
    -5.1757  -5.1604  -5.1586  -5.0104  -4.7007  -4.6763  -4.6597  -4.6522
    -4.5122  -4.3852  -4.3824  -4.3439  -4.3259  -4.0665  -4.0627  -4.0411
    -3.8452  -3.8394  -3.8272  -3.7377  -3.7192  -3.6128  -3.5697  -3.5429
    -3.2724  -3.1462  -3.1033  -2.9596  -2.7064  -2.7027  -2.7015  -2.6639
    -2.6593  -2.5569  -2.2744  -2.2445  -2.0669  -1.9429  -1.9297  -1.6790
    -1.6639  -1.6431  -1.4798  -1.4644  -0.3057  -0.2237  -0.0593  -0.0147
     0.0790   0.5197   0.6832   0.8007   0.8743   0.9650   0.9716   0.9972
     1.2458   1.2888   1.3245   1.3945   1.6144   1.8326   1.8594   1.9165

          k = 0.1333 0.5774 0.0000 ( 48556 PWs)   bands (ev):

   -15.6561 -15.6288 -15.3305 -14.9258 -14.3428 -14.3420 -13.9777 -13.9770
   -13.7430 -13.7061 -13.2748 -13.2462 -12.8354 -12.8041 -12.5203 -12.3510
   -11.7047 -11.6842 -11.3481 -10.9023 -10.2830 -10.2799 -10.0243  -9.9888
    -9.9864  -9.6293  -9.6030  -9.4972  -9.3074  -9.1959  -9.1697  -8.7288
    -8.7076  -8.2271  -8.1716  -8.1606  -8.0498  -8.0492  -7.7057  -7.6962
    -7.5743  -7.2809  -7.2796  -6.9229  -6.7219  -6.1701  -5.9615  -5.9388
    -5.9319  -5.9243  -5.9100  -5.4343  -5.4210  -5.2441  -5.2310  -5.1728
    -5.1689  -5.1543  -5.1528  -4.9842  -4.7170  -4.6922  -4.6688  -4.6612
    -4.5479  -4.4055  -4.4028  -4.3526  -4.3348  -4.0415  -4.0376  -4.0114
    -3.8454  -3.8365  -3.8272  -3.7252  -3.7065  -3.6117  -3.5780  -3.5516
    -3.3088  -3.1741  -3.1355  -2.9864  -2.7054  -2.7022  -2.6797  -2.6387
    -2.6290  -2.5708  -2.2829  -2.2240  -2.0542  -1.9581  -1.9450  -1.6955
    -1.6671  -1.6431  -1.4706  -1.4562  -0.3114  -0.2243  -0.0617  -0.0236
     0.0803   0.5105   0.7053   0.8234   0.8770   0.9748   0.9933   1.0250
     1.2527   1.2893   1.3255   1.4192   1.5957   1.8351   1.8584   1.9151

          k = 0.1500 0.5774 0.0000 ( 48568 PWs)   bands (ev):

   -15.6525 -15.6252 -15.3524 -14.8975 -14.3629 -14.3622 -13.9529 -13.9521
   -13.7398 -13.7029 -13.3071 -13.2786 -12.8155 -12.7839 -12.5319 -12.3428
   -11.7006 -11.6801 -11.3724 -10.8713 -10.3028 -10.2997 -10.0190  -9.9767
    -9.9733  -9.6436  -9.6174  -9.5115  -9.2990  -9.1590  -9.1325  -8.7269
    -8.7058  -8.2294  -8.1970  -8.1865  -8.0977  -8.0969  -7.6747  -7.6654
    -7.6010  -7.2379  -7.2366  -6.8724  -6.7756  -6.2283  -5.9700  -5.9561
    -5.9432  -5.9191  -5.9074  -5.4029  -5.3902  -5.2288  -5.1861  -5.1666
    -5.1566  -5.1479  -5.1466  -4.9575  -4.7354  -4.7104  -4.6794  -4.6715
    -4.5837  -4.4255  -4.4228  -4.3625  -4.3451  -4.0169  -4.0130  -3.9823
    -3.8444  -3.8333  -3.8260  -3.7128  -3.6938  -3.6106  -3.5869  -3.5610
    -3.3454  -3.2020  -3.1669  -3.0155  -2.7048  -2.7016  -2.6593  -2.6169
    -2.6062  -2.5728  -2.2956  -2.1988  -2.0433  -1.9746  -1.9615  -1.7121
    -1.6807  -1.6319  -1.4626  -1.4493  -0.3172  -0.2252  -0.0643  -0.0321
     0.0810   0.5021   0.7281   0.8407   0.8862   0.9817   1.0231   1.0555
     1.2599   1.2900   1.3267   1.4449   1.5780   1.8331   1.8548   1.8871

          k = 0.1667 0.5774 0.0000 ( 48582 PWs)   bands (ev):

   -15.6484 -15.6211 -15.3740 -14.8690 -14.3828 -14.3821 -13.9277 -13.9269
   -13.7362 -13.6993 -13.3397 -13.3113 -12.7966 -12.7648 -12.5433 -12.3353
   -11.6960 -11.6755 -11.3963 -10.8398 -10.3226 -10.3194 -10.0135  -9.9654
    -9.9611  -9.6557  -9.6297  -9.5257  -9.2917  -9.1212  -9.0946  -8.7249
    -8.7037  -8.2322  -8.2240  -8.2151  -8.1423  -8.1400  -7.6440  -7.6348
    -7.6262  -7.1964  -7.1951  -6.8296  -6.8199  -6.2868  -6.0009  -5.9869
    -5.9364  -5.9046  -5.8994  -5.3722  -5.3603  -5.2143  -5.1627  -5.1595
    -5.1414  -5.1401  -5.1170  -4.9303  -4.7564  -4.7311  -4.6918  -4.6832
    -4.6209  -4.4455  -4.4428  -4.3736  -4.3567  -3.9919  -3.9880  -3.9532
    -3.8421  -3.8295  -3.8234  -3.7005  -3.6812  -3.6092  -3.5953  -3.5700
    -3.3821  -3.2293  -3.1974  -3.0464  -2.7041  -2.7010  -2.6394  -2.6112
    -2.5945  -2.5461  -2.3087  -2.1724  -2.0334  -1.9922  -1.9789  -1.7288
    -1.6958  -1.6183  -1.4556  -1.4433  -0.3228  -0.2263  -0.0672  -0.0400
     0.0816   0.4943   0.7501   0.8498   0.9048   0.9926   1.0546   1.0880
     1.2670   1.2914   1.3283   1.4699   1.5628   1.8243   1.8379   1.8660

          k = 0.1833 0.5774 0.0000 ( 48592 PWs)   bands (ev):

   -15.6440 -15.6165 -15.3951 -14.8398 -14.4023 -14.4016 -13.9025 -13.9017
   -13.7323 -13.6954 -13.3725 -13.3442 -12.7790 -12.7468 -12.5547 -12.3282
   -11.6910 -11.6705 -11.4198 -10.8081 -10.3422 -10.3390 -10.0075  -9.9552
    -9.9502  -9.6663  -9.6404  -9.5399  -9.2852  -9.0821  -9.0555  -8.7228
    -8.7016  -8.2556  -8.2494  -8.2351  -8.1805  -8.1755  -7.6483  -7.6134
    -7.6045  -7.1555  -7.1542  -6.8829  -6.7684  -6.3438  -6.0301  -6.0162
    -5.9325  -5.9018  -5.8815  -5.3411  -5.3302  -5.1956  -5.1511  -5.1506
    -5.1342  -5.1331  -5.0624  -4.9025  -4.7814  -4.7559  -4.7072  -4.6964
    -4.6546  -4.4650  -4.4623  -4.3860  -4.3696  -3.9673  -3.9632  -3.9251
    -3.8386  -3.8258  -3.8197  -3.6889  -3.6692  -3.6088  -3.6044  -3.5797
    -3.4186  -3.2565  -3.2278  -3.0788  -2.7036  -2.7004  -2.6231  -2.6202
    -2.5743  -2.5110  -2.3218  -2.1455  -2.0256  -2.0104  -1.9963  -1.7455
    -1.7113  -1.6040  -1.4500  -1.4386  -0.3283  -0.2278  -0.0705  -0.0472
     0.0820   0.4873   0.7696   0.8539   0.9297   1.0081   1.0871   1.1218
     1.2732   1.2940   1.3306   1.4892   1.5543   1.8046   1.8067   1.8533

          k = 0.2000 0.5774 0.0000 ( 48596 PWs)   bands (ev):

   -15.6392 -15.6117 -15.4157 -14.8102 -14.4216 -14.4208 -13.8770 -13.8762
   -13.7279 -13.6910 -13.4057 -13.3774 -12.7627 -12.7300 -12.5660 -12.3217
   -11.6855 -11.6650 -11.4428 -10.7759 -10.3617 -10.3585 -10.0011  -9.9464
    -9.9407  -9.6753  -9.6495  -9.5540  -9.2796  -9.0424  -9.0157  -8.7205
    -8.6993  -8.2940  -8.2904  -8.2388  -8.2100  -8.2019  -7.6689  -7.5832
    -7.5745  -7.1161  -7.1148  -6.9363  -6.7160  -6.4007  -6.0595  -6.0457
    -5.9288  -5.8984  -5.8677  -5.3101  -5.3001  -5.1728  -5.1413  -5.1392
    -5.1266  -5.1258  -5.0061  -4.8739  -4.8061  -4.7805  -4.7276  -4.7108
    -4.6845  -4.4842  -4.4815  -4.4005  -4.3847  -3.9423  -3.9381  -3.8955
    -3.8338  -3.8212  -3.8149  -3.6783  -3.6579  -3.6153  -3.6085  -3.5913
    -3.4550  -3.2819  -3.2565  -3.1122  -2.7030  -2.6997  -2.6346  -2.6034
    -2.5552  -2.4744  -2.3345  -2.1184  -2.0290  -2.0251  -2.0074  -1.7621
    -1.7270  -1.5890  -1.4456  -1.4351  -0.3334  -0.2294  -0.0740  -0.0535
     0.0822   0.4810   0.7853   0.8569   0.9577   1.0286   1.1192   1.1562
     1.2786   1.2983   1.3342   1.4943   1.5606   1.7691   1.7805   1.8268

          k = 0.2167 0.5774 0.0000 ( 48594 PWs)   bands (ev):

   -15.6340 -15.6063 -15.4360 -14.7803 -14.4405 -14.4397 -13.8513 -13.8505
   -13.7230 -13.6863 -13.4389 -13.4108 -12.7477 -12.7146 -12.5772 -12.3158
   -11.6795 -11.6590 -11.4654 -10.7435 -10.3809 -10.3776  -9.9943  -9.9389
    -9.9326  -9.6826  -9.6569  -9.5680  -9.2748  -9.0024  -8.9757  -8.7179
    -8.6966  -8.3381  -8.3362  -8.2433  -8.2316  -8.2211  -7.6866  -7.5533
    -7.5447  -7.0780  -7.0766  -6.9895  -6.6625  -6.4575  -6.0892  -6.0755
    -5.9251  -5.8948  -5.8580  -5.2789  -5.2697  -5.1483  -5.1302  -5.1237
    -5.1186  -5.1181  -4.9497  -4.8447  -4.8332  -4.8075  -4.7554  -4.7261
    -4.7084  -4.5028  -4.5002  -4.4156  -4.4005  -3.9175  -3.9133  -3.8685
    -3.8276  -3.8158  -3.8088  -3.6693  -3.6480  -3.6252  -3.6083  -3.6020
    -3.4912  -3.3053  -3.2832  -3.1461  -2.7024  -2.6989  -2.6458  -2.5880
    -2.5380  -2.4374  -2.3474  -2.0925  -2.0465  -2.0404  -2.0038  -1.7784
    -1.7426  -1.5735  -1.4425  -1.4329  -0.3381  -0.2311  -0.0777  -0.0587
     0.0823   0.4754   0.7965   0.8600   0.9875   1.0538   1.1493   1.1897
     1.2843   1.3042   1.3400   1.4868   1.5787   1.7324   1.7504   1.7980

          k = 0.2333 0.5774 0.0000 ( 48580 PWs)   bands (ev):

   -15.6283 -15.6004 -15.4557 -14.7501 -14.4590 -14.4582 -13.8256 -13.8247
   -13.7177 -13.6810 -13.4723 -13.4443 -12.7341 -12.7004 -12.5882 -12.3105
   -11.6730 -11.6526 -11.4875 -10.7107 -10.4001 -10.3967  -9.9870  -9.9329
    -9.9259  -9.6881  -9.6626  -9.5818  -9.2710  -8.9608  -8.9341  -8.7148
    -8.6934  -8.3850  -8.3840  -8.2504  -8.2465  -8.2344  -7.7023  -7.5239
    -7.5155  -7.0425  -7.0406  -7.0392  -6.6093  -6.5148  -6.1185  -6.1049
    -5.9214  -5.8910  -5.8521  -5.2476  -5.2391  -5.1277  -5.1186  -5.1106
    -5.1101  -5.0995  -4.8935  -4.8619  -4.8363  -4.8154  -4.7890  -4.7424
    -4.7281  -4.5215  -4.5189  -4.4322  -4.4178  -3.8927  -3.8882  -3.8421
    -3.8201  -3.8094  -3.8015  -3.6623  -3.6398  -3.6355  -3.6131  -3.6085
    -3.5271  -3.3253  -3.3068  -3.1801  -2.7017  -2.6982  -2.6562  -2.5743
    -2.5224  -2.4004  -2.3589  -2.0796  -2.0602  -2.0503  -1.9976  -1.7947
    -1.7583  -1.5577  -1.4406  -1.4320  -0.3421  -0.2328  -0.0812  -0.0629
     0.0824   0.4704   0.8036   0.8634   1.0180   1.0831   1.1746   1.2204
     1.2930   1.3120   1.3487   1.4757   1.5968   1.6952   1.7193   1.7744

          k = 0.2500 0.5774 0.0000 ( 48562 PWs)   bands (ev):

   -15.6223 -15.5942 -15.4750 -14.7195 -14.4772 -14.4764 -13.7999 -13.7988
   -13.7120 -13.6755 -13.5058 -13.4778 -12.7220 -12.6876 -12.5989 -12.3059
   -11.6661 -11.6457 -11.5090 -10.6777 -10.4190 -10.4155  -9.9791  -9.9285
    -9.9209  -9.6914  -9.6661  -9.5954  -9.2676  -8.9184  -8.8917  -8.7119
    -8.6905  -8.4329  -8.4323  -8.2611  -8.2556  -8.2428  -7.7150  -7.4949
    -7.4867  -7.0953  -7.0051  -7.0037  -6.5701  -6.5556  -6.1475  -6.1339
    -5.9177  -5.8871  -5.8496  -5.2170  -5.2091  -5.1122  -5.1064  -5.1011
    -5.1004  -5.0667  -4.8935  -4.8677  -4.8376  -4.8257  -4.7857  -4.7595
    -4.7455  -4.5397  -4.5371  -4.4495  -4.4359  -3.8689  -3.8639  -3.8164
    -3.8112  -3.8026  -3.7929  -3.6583  -3.6470  -3.6343  -3.6254  -3.6102
    -3.5625  -3.3418  -3.3270  -3.2136  -2.7011  -2.6974  -2.6654  -2.5620
    -2.5086  -2.3705  -2.3623  -2.0934  -2.0798  -2.0283  -1.9904  -1.8107
    -1.7739  -1.5417  -1.4403  -1.4325  -0.3456  -0.2345  -0.0846  -0.0664
     0.0825   0.4661   0.8076   0.8669   1.0482   1.1147   1.1918   1.2450
     1.3074   1.3233   1.3613   1.4649   1.6049   1.6582   1.6892   1.7621

          k = 0.2667 0.5774 0.0000 ( 48562 PWs)   bands (ev):

   -15.6159 -15.5875 -15.4934 -14.6886 -14.4948 -14.4940 -13.7745 -13.7731
   -13.7057 -13.6695 -13.5395 -13.5116 -12.7116 -12.6763 -12.6092 -12.3021
   -11.6588 -11.6384 -11.5300 -10.6442 -10.4376 -10.4341  -9.9708  -9.9258
    -9.9178  -9.6936  -9.6683  -9.6086  -9.2647  -8.8755  -8.8489  -8.7086
    -8.6873  -8.4829  -8.4825  -8.2702  -8.2633  -8.2487  -7.7253  -7.4664
    -7.4585  -7.1479  -6.9707  -6.9692  -6.6264  -6.5017  -6.1778  -6.1642
    -5.9138  -5.8828  -5.8498  -5.1877  -5.1801  -5.0980  -5.0943  -5.0904
    -5.0896  -5.0290  -4.9260  -4.9002  -4.8632  -4.7850  -4.7752  -4.7688
    -4.7479  -4.5573  -4.5547  -4.4689  -4.4561  -3.8470  -3.8412  -3.8014
    -3.7946  -3.7894  -3.7827  -3.6578  -3.6562  -3.6357  -3.6325  -3.6126
    -3.5973  -3.3543  -3.3431  -3.2459  -2.7004  -2.6967  -2.6734  -2.5523
    -2.4976  -2.3791  -2.3261  -2.1120  -2.0997  -2.0013  -1.9834  -1.8262
    -1.7894  -1.5254  -1.4416  -1.4347  -0.3486  -0.2361  -0.0876  -0.0691
     0.0826   0.4625   0.8095   0.8700   1.0771   1.1457   1.1996   1.2615
     1.3270   1.3403   1.3788   1.4564   1.5959   1.6220   1.6611   1.7658

          k = 0.2833 0.5774 0.0000 ( 48550 PWs)   bands (ev):

   -15.6095 -15.5806 -15.5114 -14.6575 -14.5121 -14.5113 -13.7494 -13.7475
   -13.6985 -13.6629 -13.5730 -13.5453 -12.7028 -12.6663 -12.6188 -12.2990
   -11.6511 -11.6308 -11.5502 -10.6106 -10.4560 -10.4524  -9.9621  -9.9247
    -9.9163  -9.6938  -9.6688  -9.6214  -9.2625  -8.8322  -8.8056  -8.7055
    -8.6841  -8.5311  -8.5308  -8.2765  -8.2692  -8.2537  -7.7330  -7.4385
    -7.4308  -7.2001  -6.9377  -6.9362  -6.6822  -6.4476  -6.2064  -6.1929
    -5.9101  -5.8785  -5.8522  -5.1579  -5.1506  -5.0866  -5.0851  -5.0758
    -5.0746  -4.9887  -4.9595  -4.9338  -4.9028  -4.7982  -4.7884  -4.7226
    -4.7198  -4.5748  -4.5721  -4.4899  -4.4780  -3.8274  -3.8203  -3.7898
    -3.7852  -3.7718  -3.7643  -3.6677  -3.6604  -3.6479  -3.6386  -3.6271
    -3.6170  -3.3616  -3.3530  -3.2764  -2.6997  -2.6961  -2.6800  -2.5441
    -2.4889  -2.3870  -2.2895  -2.1311  -2.1194  -1.9806  -1.9724  -1.8408
    -1.8047  -1.5091  -1.4443  -1.4383  -0.3508  -0.2374  -0.0900  -0.0713
     0.0828   0.4597   0.8103   0.8725   1.1044   1.1718   1.1997   1.2719
     1.3477   1.3634   1.4008   1.4524   1.5711   1.5886   1.6351   1.7828

          k = 0.3000 0.5774 0.0000 ( 48566 PWs)   bands (ev):

   -15.6031 -15.5734 -15.5283 -14.6260 -14.5292 -14.5284 -13.7258 -13.7223
   -13.6901 -13.6559 -13.6061 -13.5786 -12.6960 -12.6580 -12.6276 -12.2967
   -11.6431 -11.6230 -11.5696 -10.5767 -10.4741 -10.4705  -9.9534  -9.9251
    -9.9167  -9.6927  -9.6680  -9.6331  -9.2611  -8.7880  -8.7615  -8.7025
    -8.6812  -8.5806  -8.5804  -8.2802  -8.2732  -8.2583  -7.7386  -7.4113
    -7.4038  -7.2520  -6.9065  -6.9049  -6.7380  -6.3933  -6.2349  -6.2214
    -5.9070  -5.8743  -5.8562  -5.1288  -5.1220  -5.0764  -5.0760  -5.0594
    -5.0580  -4.9955  -4.9695  -4.9460  -4.9415  -4.8184  -4.8082  -4.6891
    -4.6675  -4.5919  -4.5892  -4.5130  -4.5020  -3.8121  -3.8032  -3.7769
    -3.7748  -3.7589  -3.7407  -3.6792  -3.6694  -3.6631  -3.6595  -3.6358
    -3.6236  -3.3642  -3.3564  -3.3042  -2.6990  -2.6958  -2.6849  -2.5382
    -2.4830  -2.3924  -2.2533  -2.1500  -2.1387  -1.9751  -1.9470  -1.8536
    -1.8198  -1.4928  -1.4485  -1.4434  -0.3524  -0.2384  -0.0917  -0.0728
     0.0829   0.4576   0.8105   0.8744   1.1298   1.1887   1.1942   1.2790
     1.3664   1.3888   1.4254   1.4567   1.5371   1.5584   1.6114   1.8052

          k = 0.3167 0.5774 0.0000 ( 48554 PWs)   bands (ev):

   -15.5974 -15.5662 -15.5430 -14.5941 -14.5459 -14.5451 -13.7060 -13.6986
   -13.6798 -13.6485 -13.6366 -13.6105 -12.6915 -12.6518 -12.6345 -12.2953
   -11.6352 -11.6159 -11.5867 -10.5423 -10.4920 -10.4882  -9.9455  -9.9261
    -9.9187  -9.6906  -9.6667  -9.6424  -9.2601  -8.7434  -8.7173  -8.7000
    -8.6794  -8.6291  -8.6282  -8.2814  -8.2754  -8.2622  -7.7415  -7.3846
    -7.3775  -7.3034  -6.8770  -6.8754  -6.7932  -6.3393  -6.2631  -6.2493
    -5.9041  -5.8696  -5.8609  -5.1010  -5.0952  -5.0666  -5.0646  -5.0463
    -5.0417  -5.0268  -5.0046  -4.9802  -4.9026  -4.8393  -4.8289  -4.6561
    -4.6131  -4.6087  -4.6060  -4.5358  -4.5259  -3.8011  -3.7926  -3.7652
    -3.7628  -3.7449  -3.7182  -3.7013  -3.6894  -3.6702  -3.6661  -3.6401
    -3.6315  -3.3622  -3.3538  -3.3282  -2.6981  -2.6961  -2.6877  -2.5344
    -2.4796  -2.3955  -2.2176  -2.1684  -2.1572  -1.9730  -1.9256  -1.8615
    -1.8340  -1.4764  -1.4540  -1.4499  -0.3533  -0.2390  -0.0926  -0.0738
     0.0831   0.4563   0.8105   0.8755   1.1525   1.1850   1.1956   1.2836
     1.3789   1.4121   1.4500   1.4740   1.5012   1.5295   1.5921   1.8247

          k = 0.3333 0.5774 0.0000 ( 48552 PWs)   bands (ev):

   -15.5946 -15.5623 -15.5504 -14.5626 -14.5618 -14.5612 -13.6950 -13.6820
   -13.6783 -13.6488 -13.6464 -13.6299 -12.6899 -12.6494 -12.6373 -12.2948
   -11.6305 -11.6133 -11.5948 -10.5100 -10.5089 -10.5040  -9.9416  -9.9257
    -9.9214  -9.6894  -9.6666  -9.6466  -9.2599  -8.7069  -8.6972  -8.6930
    -8.6746  -8.6668  -8.6593  -8.2809  -8.2765  -8.2640  -7.7426  -7.3598
    -7.3571  -7.3479  -6.8496  -6.8474  -6.8469  -6.2932  -6.2880  -6.2716
    -5.9031  -5.8659  -5.8646  -5.0774  -5.0767  -5.0707  -5.0574  -5.0501
    -5.0474  -5.0177  -5.0173  -5.0141  -4.8660  -4.8565  -4.8476  -4.6264
    -4.6230  -4.6216  -4.5670  -4.5537  -4.5516  -3.7956  -3.7907  -3.7609
    -3.7526  -3.7327  -3.7255  -3.7011  -3.6993  -3.6768  -3.6657  -3.6412
    -3.6372  -3.3583  -3.3490  -3.3430  -2.6977  -2.6965  -2.6884  -2.5327
    -2.4782  -2.3961  -2.1862  -2.1861  -2.1713  -1.9724  -1.9173  -1.8609
    -1.8431  -1.4627  -1.4592  -1.4570  -0.3536  -0.2392  -0.0930  -0.0741
     0.0832   0.4558   0.8105   0.8759   1.1673   1.1760   1.1960   1.2852
     1.3825   1.4249   1.4691   1.4739   1.5009   1.5025   1.5828   1.8320

          k = 0.3167 0.5485 0.0000 ( 48558 PWs)   bands (ev):

   -15.6101 -15.5579 -15.5368 -14.5938 -14.5930 -14.4969 -13.7479 -13.7212
   -13.6692 -13.6362 -13.6047 -13.5994 -12.6961 -12.6523 -12.6331 -12.2968
   -11.6541 -11.6010 -11.5805 -10.5436 -10.5399 -10.4378  -9.9522  -9.9375
    -9.9053  -9.6997  -9.6586  -9.6356  -9.2608  -8.7850  -8.7843  -8.6846
    -8.6628  -8.6021  -8.5760  -8.2885  -8.2674  -8.2561  -7.7387  -7.4568
    -7.3087  -7.3017  -6.9579  -6.7966  -6.7948  -6.3444  -6.3320  -6.1734
    -5.9093  -5.8702  -5.8574  -5.1536  -5.1283  -5.1074  -5.0469  -5.0424
    -5.0029  -4.9983  -4.9748  -4.9730  -4.9084  -4.8973  -4.7662  -4.6572
    -4.6537  -4.6194  -4.6111  -4.5580  -4.4511  -3.8223  -3.8035  -3.7958
    -3.7742  -3.7221  -3.7109  -3.7078  -3.6944  -3.6801  -3.6461  -3.6208
    -3.6144  -3.3784  -3.3303  -3.3201  -2.6972  -2.6951  -2.6869  -2.5377
    -2.4812  -2.3947  -2.2196  -2.2111  -2.1109  -1.9752  -1.9343  -1.8824
    -1.8034  -1.4800  -1.4783  -1.4262  -0.3526  -0.2384  -0.0919  -0.0726
     0.0827   0.4577   0.8108   0.8744   1.1377   1.1663   1.2141   1.2792
     1.3678   1.3752   1.4508   1.4781   1.4997   1.5196   1.6422   1.8158

          k = 0.3000 0.5196 0.0000 ( 48554 PWs)   bands (ev):

   -15.6386 -15.5413 -15.5175 -14.6238 -14.6230 -14.4304 -13.8149 -13.7877
   -13.6515 -13.6161 -13.5530 -13.5506 -12.7105 -12.6550 -12.6309 -12.3028
   -11.6883 -11.5797 -11.5591 -10.5763 -10.5724 -10.3669  -9.9737  -9.9586
    -9.8812  -9.7211  -9.6371  -9.6132  -9.2626  -8.8815  -8.8807  -8.6772
    -8.6548  -8.5085  -8.4829  -8.3020  -8.2461  -8.2355  -7.7260  -7.5566
    -7.2618  -7.2553  -7.0666  -6.7504  -6.7484  -6.3963  -6.3839  -6.0629
    -5.9250  -5.8683  -5.8511  -5.2364  -5.2109  -5.1856  -5.0281  -5.0243
    -4.9657  -4.9552  -4.9462  -4.9383  -4.9190  -4.9178  -4.6958  -4.6869
    -4.6839  -4.6766  -4.6622  -4.4923  -4.3462  -3.8732  -3.8649  -3.8385
    -3.7996  -3.7439  -3.7339  -3.6993  -3.6668  -3.6498  -3.6048  -3.5747
    -3.5692  -3.3887  -3.2972  -3.2863  -2.6931  -2.6912  -2.6835  -2.5502
    -2.4872  -2.3926  -2.2497  -2.2418  -2.0444  -1.9856  -1.9606  -1.9104
    -1.7444  -1.5042  -1.5037  -1.3924  -0.3499  -0.2359  -0.0893  -0.0679
     0.0809   0.4636   0.8117   0.8701   1.0960   1.1311   1.2304   1.2599
     1.2930   1.3545   1.4106   1.4862   1.5047   1.5141   1.7416   1.7880

          k = 0.2833 0.4907 0.0000 ( 48558 PWs)   bands (ev):

   -15.6677 -15.5206 -15.4959 -14.6523 -14.6515 -14.3632 -13.8824 -13.8552
   -13.6328 -13.5966 -13.5002 -13.4986 -12.7274 -12.6598 -12.6334 -12.3132
   -11.7217 -11.5561 -11.5355 -10.6075 -10.6035 -10.2952 -10.0023  -9.9865
    -9.8545  -9.7432  -9.6077  -9.5837  -9.2637  -8.9768  -8.9760  -8.6695
    -8.6467  -8.4122  -8.3873  -8.3180  -8.2149  -8.2041  -7.7055  -7.6549
    -7.2179  -7.2118  -7.1744  -6.7101  -6.7079  -6.4470  -6.4346  -5.9537
    -5.9449  -5.8647  -5.8467  -5.3237  -5.2982  -5.2685  -5.0287  -5.0183
    -4.9934  -4.9890  -4.8913  -4.8867  -4.8708  -4.8676  -4.7533  -4.7459
    -4.7160  -4.7139  -4.5825  -4.4275  -4.2415  -3.9331  -3.9229  -3.8966
    -3.8509  -3.7637  -3.7557  -3.6933  -3.6204  -3.6031  -3.5650  -3.5219
    -3.5166  -3.3874  -3.2584  -3.2473  -2.6900  -2.6828  -2.6740  -2.5663
    -2.4965  -2.3933  -2.2763  -2.2690  -2.0046  -1.9943  -1.9706  -1.9363
    -1.6828  -1.5343  -1.5328  -1.3583  -0.3463  -0.2321  -0.0857  -0.0598
     0.0769   0.4738   0.8125   0.8633   1.0480   1.0867   1.1882   1.2317
     1.2519   1.3377   1.3819   1.4762   1.4917   1.5126   1.7596   1.7637

          k = 0.2667 0.4619 0.0000 ( 48580 PWs)   bands (ev):

   -15.6960 -15.4979 -15.4728 -14.6793 -14.6785 -14.2946 -13.9495 -13.9224
   -13.6131 -13.5766 -13.4472 -13.4459 -12.7451 -12.6681 -12.6405 -12.3279
   -11.7535 -11.5304 -11.5097 -10.6373 -10.6332 -10.2231 -10.0367 -10.0204
    -9.8257  -9.7655  -9.5720  -9.5479  -9.2635  -9.0704  -9.0692  -8.6616
    -8.6383  -8.3367  -8.3137  -8.2902  -8.1737  -8.1620  -7.7516  -7.6772
    -7.2804  -7.1774  -7.1717  -6.6753  -6.6729  -6.4943  -6.4820  -5.9663
    -5.8635  -5.8485  -5.8457  -5.4152  -5.3899  -5.3509  -5.0741  -5.0598
    -4.9813  -4.9798  -4.8410  -4.8385  -4.8301  -4.8243  -4.8102  -4.8088
    -4.7422  -4.7399  -4.4984  -4.3649  -4.1416  -3.9972  -3.9751  -3.9595
    -3.9158  -3.7835  -3.7775  -3.6779  -3.5690  -3.5512  -3.5275  -3.4674
    -3.4618  -3.3786  -3.2165  -3.2057  -2.6860  -2.6770  -2.6523  -2.5850
    -2.5099  -2.3979  -2.2995  -2.2926  -2.0233  -2.0170  -1.9677  -1.9088
    -1.6206  -1.5681  -1.5662  -1.3241  -0.3430  -0.2280  -0.0813  -0.0493
     0.0702   0.4882   0.8112   0.8533   0.9970   1.0389   1.0996   1.2081
     1.2220   1.3296   1.3637   1.4518   1.4643   1.5150   1.7324   1.7436

          k = 0.2500 0.4330 0.0000 ( 48552 PWs)   bands (ev):

   -15.7225 -15.4732 -15.4478 -14.7047 -14.7039 -14.2250 -14.0161 -13.9890
   -13.5921 -13.5555 -13.3946 -13.3934 -12.7623 -12.6802 -12.6519 -12.3473
   -11.7834 -11.5027 -11.4821 -10.6654 -10.6613 -10.1508 -10.0757 -10.0596
    -9.7959  -9.7855  -9.5296  -9.5055  -9.2622  -9.1610  -9.1585  -8.6540
    -8.6299  -8.3570  -8.2164  -8.1963  -8.1220  -8.1074  -7.8462  -7.6427
    -7.3852  -7.1401  -7.1347  -6.6446  -6.6420  -6.5384  -6.5262  -5.9878
    -5.8661  -5.8503  -5.7445  -5.5084  -5.4835  -5.4344  -5.1242  -5.1086
    -4.9645  -4.9632  -4.9128  -4.9042  -4.7868  -4.7811  -4.7693  -4.7671
    -4.7513  -4.7478  -4.4196  -4.3092  -4.0625  -4.0473  -4.0220  -4.0150
    -3.9845  -3.8032  -3.7988  -3.6573  -3.5129  -3.4947  -3.4882  -3.4124
    -3.4050  -3.3620  -3.1724  -3.1620  -2.6807  -2.6705  -2.6203  -2.6030
    -2.5276  -2.4068  -2.3195  -2.3127  -2.0486  -2.0428  -1.9926  -1.8499
    -1.6091  -1.6029  -1.5539  -1.2891  -0.3403  -0.2243  -0.0758  -0.0373
     0.0607   0.5062   0.8037   0.8380   0.9486   0.9940   1.0053   1.1784
     1.1876   1.3245   1.3523   1.4184   1.4288   1.5169   1.7077   1.7231

          k = 0.2333 0.4041 0.0000 ( 48586 PWs)   bands (ev):

   -15.7477 -15.4468 -15.4213 -14.7284 -14.7276 -14.1545 -14.0823 -14.0552
   -13.5697 -13.5330 -13.3428 -13.3416 -12.7792 -12.6962 -12.6675 -12.3715
   -11.8116 -11.4733 -11.4526 -10.6919 -10.6877 -10.1239 -10.1034 -10.0733
    -9.8096  -9.7603  -9.4837  -9.4595  -9.2698  -9.2493  -9.2344  -8.6457
    -8.6206  -8.3794  -8.1248  -8.1109  -8.0564  -8.0359  -7.9393  -7.6034
    -7.4882  -7.1061  -7.1010  -6.6191  -6.6162  -6.5811  -6.5692  -6.0095
    -5.8760  -5.8628  -5.6487  -5.5980  -5.5766  -5.5171  -5.1713  -5.1541
    -4.9996  -4.9899  -4.9483  -4.9472  -4.7965  -4.7944  -4.7220  -4.7154
    -4.6986  -4.6968  -4.3488  -4.2709  -4.1278  -4.0893  -4.0533  -4.0365
    -3.9508  -3.8224  -3.8194  -3.6334  -3.4573  -3.4524  -3.4334  -3.3651
    -3.3486  -3.3327  -3.1277  -3.1178  -2.6739  -2.6628  -2.6224  -2.5780
    -2.5501  -2.4206  -2.3367  -2.3297  -2.0795  -2.0702  -2.0174  -1.7935
    -1.6491  -1.6422  -1.4909  -1.2533  -0.3393  -0.2226  -0.0695  -0.0254
     0.0482   0.5269   0.7829   0.8111   0.9042   0.9117   0.9623   1.1489
     1.1522   1.3173   1.3390   1.3851   1.3895   1.5154   1.6850   1.7055

          k = 0.2167 0.3753 0.0000 ( 48598 PWs)   bands (ev):

   -15.7712 -15.4185 -15.3929 -14.7505 -14.7497 -14.1477 -14.1207 -14.0833
   -13.5461 -13.5093 -13.2919 -13.2908 -12.7952 -12.7155 -12.6867 -12.4005
   -11.8380 -11.4419 -11.4213 -10.7168 -10.7125 -10.1700 -10.1507 -10.0009
    -9.8291  -9.7249  -9.4334  -9.4095  -9.3378  -9.3333  -9.2425  -8.6399
    -8.6132  -8.4040  -8.0447  -8.0361  -8.0290  -7.9710  -7.9457  -7.5894
    -7.5580  -7.0752  -7.0704  -6.6239  -6.6135  -6.5927  -6.5911  -6.0298
    -5.8954  -5.8855  -5.6984  -5.6724  -5.6002  -5.5412  -5.2116  -5.1928
    -5.0904  -5.0794  -4.9327  -4.9316  -4.8179  -4.8153  -4.6693  -4.6606
    -4.6398  -4.6390  -4.2914  -4.2638  -4.1928  -4.1479  -4.1205  -4.0224
    -3.8658  -3.8395  -3.8342  -3.6084  -3.4262  -3.3898  -3.3703  -3.3326
    -3.2921  -3.2846  -3.0826  -3.0736  -2.6652  -2.6532  -2.6394  -2.5754
    -2.5250  -2.4375  -2.3517  -2.3440  -2.1162  -2.0952  -2.0411  -1.7434
    -1.6922  -1.6809  -1.4269  -1.2171  -0.3406  -0.2241  -0.0628  -0.0144
     0.0340   0.5483   0.7465   0.7695   0.8004   0.8912   0.9437   1.1183
     1.1240   1.3057   1.3082   1.3490   1.3713   1.5076   1.6644   1.6910

          k = 0.2000 0.3464 0.0000 ( 48594 PWs)   bands (ev):

   -15.7929 -15.3886 -15.3629 -14.7711 -14.7703 -14.2125 -14.1855 -14.0112
   -13.5213 -13.4845 -13.2424 -13.2413 -12.8105 -12.7375 -12.7091 -12.4340
   -11.8624 -11.4088 -11.3882 -10.7399 -10.7356 -10.2204 -10.2009  -9.9267
    -9.8470  -9.6872  -9.4221  -9.4191  -9.3743  -9.3502  -9.2310  -8.6351
    -8.6061  -8.4301  -8.1200  -7.9692  -7.9630  -7.8719  -7.8449  -7.6885
    -7.5073  -7.0476  -7.0431  -6.6602  -6.6485  -6.5762  -6.5733  -6.0492
    -5.9274  -5.9211  -5.7909  -5.7667  -5.6834  -5.4456  -5.2428  -5.2225
    -5.1854  -5.1730  -4.9175  -4.9166  -4.8383  -4.8355  -4.6174  -4.6077
    -4.5813  -4.5802  -4.2839  -4.2793  -4.2514  -4.1846  -4.1750  -3.9759
    -3.8615  -3.8578  -3.7718  -3.5813  -3.3978  -3.3286  -3.3139  -3.2902
    -3.2359  -3.2299  -3.0379  -3.0298  -2.6563  -2.6541  -2.6416  -2.6032
    -2.4620  -2.4566  -2.3648  -2.3564  -2.1584  -2.1188  -2.0638  -1.7413
    -1.7362  -1.6778  -1.3625  -1.1800  -0.3444  -0.2301  -0.0564  -0.0057
     0.0187   0.5678   0.6921   0.7007   0.7194   0.8822   0.9339   1.0869
     1.1057   1.2659   1.2843   1.3180   1.3713   1.4901   1.6450   1.6788

          k = 0.1833 0.3175 0.0000 ( 48596 PWs)   bands (ev):

   -15.8130 -15.3570 -15.3312 -14.7900 -14.7892 -14.2763 -14.2494 -13.9390
   -13.4953 -13.4584 -13.1945 -13.1934 -12.8254 -12.7620 -12.7343 -12.4722
   -11.8849 -11.3740 -11.3533 -10.7614 -10.7569 -10.2730 -10.2533  -9.8638
    -9.8521  -9.6473  -9.4967  -9.4946  -9.3194  -9.2941  -9.2144  -8.6329
    -8.6001  -8.4572  -8.2070  -7.8948  -7.8892  -7.7868  -7.7663  -7.7391
    -7.4534  -7.0231  -7.0189  -6.6930  -6.6812  -6.5611  -6.5578  -6.0680
    -5.9742  -5.9709  -5.8816  -5.8602  -5.7667  -5.3532  -5.2844  -5.2724
    -5.2627  -5.2385  -4.9016  -4.9007  -4.8571  -4.8542  -4.5676  -4.5575
    -4.5217  -4.5203  -4.3330  -4.3171  -4.3068  -4.2448  -4.1464  -3.9148
    -3.8810  -3.8771  -3.6931  -3.5527  -3.3719  -3.2921  -3.2521  -3.2240
    -3.1803  -3.1747  -2.9939  -2.9869  -2.6711  -2.6420  -2.6330  -2.6270
    -2.4794  -2.3886  -2.3753  -2.3672  -2.2047  -2.1411  -2.0855  -1.7852
    -1.7809  -1.6344  -1.2988  -1.1421  -0.3512  -0.2418  -0.0510  -0.0001
     0.0033   0.5771   0.5817   0.6561   0.6678   0.8776   0.9248   1.0571
     1.0948   1.2245   1.2544   1.2990   1.3769   1.4583   1.6238   1.6677

          k = 0.1667 0.2887 0.0000 ( 48552 PWs)   bands (ev):

   -15.8314 -15.3238 -15.2980 -14.8071 -14.8063 -14.3391 -14.3122 -13.8655
   -13.4681 -13.4312 -13.1486 -13.1475 -12.8402 -12.7878 -12.7618 -12.5147
   -11.9055 -11.3373 -11.3167 -10.7808 -10.7763 -10.3275 -10.3076  -9.8791
    -9.7777  -9.6053  -9.5694  -9.5675  -9.2599  -9.2338  -9.1925  -8.6346
    -8.5954  -8.4842  -8.2918  -7.8802  -7.8177  -7.8123  -7.6583  -7.6311
    -7.3954  -7.0016  -6.9976  -6.7216  -6.7097  -6.5473  -6.5437  -6.0857
    -6.0360  -6.0344  -5.9648  -5.9484  -5.8472  -5.3868  -5.3731  -5.2714
    -5.2684  -5.2461  -4.8866  -4.8858  -4.8740  -4.8709  -4.5204  -4.5108
    -4.4628  -4.4611  -4.3951  -4.3680  -4.3534  -4.3007  -4.1079  -3.8999
    -3.8949  -3.8438  -3.6198  -3.5225  -3.3473  -3.2634  -3.1845  -3.1527
    -3.1264  -3.1210  -2.9514  -2.9457  -2.6842  -2.6651  -2.6256  -2.6115
    -2.5044  -2.3881  -2.3772  -2.3029  -2.2544  -2.1621  -2.1060  -1.8323
    -1.8275  -1.5913  -1.2352  -1.1033  -0.3612  -0.2599  -0.0478  -0.0115
     0.0016   0.4631   0.5675   0.6165   0.6318   0.8735   0.9118   1.0272
     1.0878   1.1894   1.2312   1.2841   1.3840   1.4103   1.5937   1.6557

          k = 0.1500 0.2598 0.0000 ( 48554 PWs)   bands (ev):

   -15.8479 -15.2889 -15.2630 -14.8230 -14.8221 -14.4009 -14.3741 -13.7916
   -13.4397 -13.4028 -13.1053 -13.1042 -12.8560 -12.8137 -12.7911 -12.5613
   -11.9241 -11.2989 -11.2783 -10.7987 -10.7942 -10.3830 -10.3629  -9.8931
    -9.7036  -9.6374  -9.6358  -9.5611  -9.1993  -9.1722  -9.1662  -8.6424
    -8.5924  -8.5094  -8.3745  -7.9742  -7.7373  -7.7321  -7.5473  -7.5202
    -7.3345  -6.9831  -6.9793  -6.7456  -6.7336  -6.5372  -6.5334  -6.1146
    -6.1092  -6.0989  -6.0451  -6.0357  -5.9300  -5.4918  -5.4771  -5.2687
    -5.2422  -5.1894  -4.8904  -4.8873  -4.8745  -4.8737  -4.4771  -4.4745
    -4.4482  -4.4328  -4.4060  -4.4036  -4.3900  -4.3518  -4.0730  -3.9198
    -3.9140  -3.7711  -3.5492  -3.4913  -3.3244  -3.2348  -3.1178  -3.0820
    -3.0727  -3.0687  -2.9107  -2.9062  -2.6985  -2.6941  -2.6081  -2.5932
    -2.5309  -2.3987  -2.3867  -2.3076  -2.2114  -2.1816  -2.1258  -1.8800
    -1.8748  -1.5514  -1.1724  -1.0637  -0.3746  -0.2842  -0.0473  -0.0254
    -0.0011   0.3433   0.5326   0.5716   0.6236   0.8656   0.8942   0.9963
     1.0789   1.1615   1.2247   1.2701   1.3480   1.3933   1.5474   1.6343

          k = 0.1333 0.2309 0.0000 ( 48564 PWs)   bands (ev):

   -15.8628 -15.2523 -15.2264 -14.8371 -14.8363 -14.4617 -14.4349 -13.7176
   -13.4105 -13.3734 -13.0649 -13.0637 -12.8754 -12.8373 -12.8214 -12.6120
   -11.9410 -11.2589 -11.2383 -10.8146 -10.8101 -10.4394 -10.4192  -9.9061
    -9.7000  -9.6987  -9.6292  -9.5151  -9.1395  -9.1358  -9.1107  -8.6591
    -8.5920  -8.5308  -8.4543  -8.0666  -7.6541  -7.6489  -7.4351  -7.4082
    -7.2710  -6.9673  -6.9638  -6.7644  -6.7521  -6.5287  -6.5247  -6.1968
    -6.1905  -6.1285  -6.1220  -6.1117  -6.0133  -5.5973  -5.5820  -5.2571
    -5.2297  -5.1157  -4.9048  -4.9016  -4.8623  -4.8615  -4.5262  -4.4946
    -4.4298  -4.4248  -4.4164  -4.3979  -4.3543  -4.3527  -4.0436  -3.9392
    -3.9325  -3.6968  -3.4863  -3.4591  -3.3053  -3.2057  -3.0553  -3.0266
    -3.0198  -3.0060  -2.8738  -2.8680  -2.7280  -2.7034  -2.5888  -2.5728
    -2.5574  -2.4102  -2.3968  -2.3628  -2.2029  -2.1452  -2.1099  -1.9275
    -1.9221  -1.5153  -1.1106  -1.0233  -0.3918  -0.3140  -0.0504  -0.0383
    -0.0081   0.2206   0.4951   0.5318   0.6128   0.8477   0.8741   0.9650
     1.0674   1.1363   1.2356   1.2562   1.2909   1.3947   1.5061   1.6103

          k = 0.1167 0.2021 0.0000 ( 48596 PWs)   bands (ev):

   -15.8759 -15.2142 -15.1882 -14.8497 -14.8488 -14.5214 -14.4946 -13.6430
   -13.3802 -13.3431 -13.0281 -13.0266 -12.9005 -12.8602 -12.8479 -12.6662
   -11.9557 -11.2173 -11.1967 -10.8289 -10.8243 -10.4961 -10.4757  -9.9174
    -9.7565  -9.7552  -9.5561  -9.4671  -9.1021  -9.0808  -9.0496  -8.6851
    -8.5936  -8.5473  -8.5312  -8.1545  -7.5680  -7.5628  -7.3229  -7.2964
    -7.2050  -6.9543  -6.9509  -6.7777  -6.7652  -6.5214  -6.5172  -6.2826
    -6.2759  -6.2102  -6.2063  -6.1270  -6.0965  -5.7060  -5.6902  -5.2379
    -5.2097  -5.0496  -4.9180  -4.9147  -4.8523  -4.8516  -4.5870  -4.5558
    -4.4566  -4.4386  -4.3887  -4.3763  -4.3067  -4.3052  -4.0195  -3.9608
    -3.9533  -3.6216  -3.4295  -3.4258  -3.2876  -3.1758  -3.0017  -2.9796
    -2.9732  -2.9376  -2.8439  -2.8309  -2.7528  -2.7066  -2.5846  -2.5666
    -2.5511  -2.4354  -2.4130  -2.3993  -2.2218  -2.1634  -2.0133  -1.9734
    -1.9621  -1.4832  -1.0499  -0.9821  -0.4127  -0.3484  -0.0571  -0.0505
    -0.0190   0.0962   0.4620   0.4982   0.5925   0.8188   0.8502   0.9319
     1.0580   1.1125   1.2296   1.2509   1.2683   1.3889   1.4917   1.5921

          k = 0.1000 0.1732 0.0000 ( 48574 PWs)   bands (ev):

   -15.8872 -15.1744 -15.1485 -14.8604 -14.8596 -14.5797 -14.5529 -13.5683
   -13.3489 -13.3116 -12.9959 -12.9940 -12.9298 -12.8908 -12.8624 -12.7235
   -11.9685 -11.1739 -11.1534 -10.8412 -10.8366 -10.5528 -10.5323  -9.9270
    -9.8076  -9.8063  -9.4835  -9.4171  -9.0640  -9.0253  -8.9898  -8.7188
    -8.6038  -8.5975  -8.5605  -8.2412  -7.4796  -7.4743  -7.2091  -7.1831
    -7.1353  -6.9435  -6.9403  -6.7863  -6.7734  -6.5167  -6.5122  -6.3670
    -6.3621  -6.2941  -6.2891  -6.1808  -6.1393  -5.8154  -5.7995  -5.2121
    -5.1834  -4.9898  -4.9289  -4.9255  -4.8427  -4.8421  -4.6466  -4.6155
    -4.4851  -4.4738  -4.3482  -4.3362  -4.2616  -4.2602  -4.0006  -3.9805
    -3.9722  -3.5463  -3.3914  -3.3761  -3.2715  -3.1445  -2.9645  -2.9379
    -2.9313  -2.8752  -2.8251  -2.7957  -2.7641  -2.7031  -2.6065  -2.5477
    -2.5304  -2.4849  -2.4240  -2.4092  -2.2403  -2.1811  -2.0269  -2.0189
    -1.8866  -1.4552  -0.9907  -0.9399  -0.4369  -0.3863  -0.0673  -0.0627
    -0.0368  -0.0241   0.4351   0.4705   0.5630   0.7842   0.8209   0.8908
     1.0551   1.0972   1.2002   1.2369   1.2999   1.3869   1.4964   1.5773

          k = 0.0833 0.1443 0.0000 ( 48548 PWs)   bands (ev):

   -15.8969 -15.1332 -15.1073 -14.8696 -14.8686 -14.6368 -14.6100 -13.4937
   -13.3169 -13.2794 -12.9765 -12.9676 -12.9533 -12.9221 -12.8715 -12.7831
   -11.9793 -11.1291 -11.1087 -10.8516 -10.8469 -10.6093 -10.5887  -9.9338
    -9.8510  -9.8497  -9.4119  -9.3654  -9.0223  -8.9763  -8.9327  -8.7572
    -8.6701  -8.6053  -8.5737  -8.3246  -7.3888  -7.3835  -7.0951  -7.0725
    -7.0597  -6.9347  -6.9317  -6.7880  -6.7747  -6.5123  -6.5076  -6.4516
    -6.4495  -6.3775  -6.3701  -6.2655  -6.1502  -5.9265  -5.9113  -5.1816
    -5.1526  -4.9397  -4.9359  -4.9324  -4.8336  -4.8332  -4.7048  -4.6738
    -4.5100  -4.5034  -4.3082  -4.2965  -4.2233  -4.2220  -4.0057  -3.9982
    -3.9830  -3.4723  -3.3575  -3.3328  -3.2592  -3.1143  -2.9507  -2.9021
    -2.8952  -2.8277  -2.8148  -2.7661  -2.7525  -2.6894  -2.6190  -2.5517
    -2.5218  -2.5053  -2.4279  -2.4138  -2.2586  -2.1978  -2.0719  -2.0650
    -1.7757  -1.4313  -0.9332  -0.8976  -0.4648  -0.4262  -0.1545  -0.0774
    -0.0750  -0.0462   0.4144   0.4483   0.5279   0.7484   0.7896   0.8421
     1.0605   1.0931   1.1762   1.2260   1.3383   1.3963   1.5060   1.5655

          k = 0.0667 0.1155 0.0000 ( 48555 PWs)   bands (ev):

   -15.9047 -15.0905 -15.0647 -14.8771 -14.8760 -14.6926 -14.6658 -13.4196
   -13.2841 -13.2464 -13.0013 -12.9692 -12.9398 -12.9310 -12.8784 -12.8443
   -11.9882 -11.0829 -11.0625 -10.8601 -10.8554 -10.6655 -10.6448  -9.9405
    -9.8867  -9.8854  -9.3421  -9.3118  -8.9833  -8.9399  -8.8783  -8.7948
    -8.7239  -8.6169  -8.5886  -8.4063  -7.2964  -7.2908  -6.9937  -6.9790
    -6.9526  -6.9273  -6.9243  -6.7830  -6.7691  -6.5411  -6.5390  -6.5072
    -6.5030  -6.4573  -6.4465  -6.3500  -6.1619  -6.0369  -6.0250  -5.1466
    -5.1174  -4.9463  -4.9426  -4.8914  -4.8263  -4.8259  -4.7618  -4.7308
    -4.5309  -4.5275  -4.2720  -4.2605  -4.1908  -4.1896  -4.0296  -4.0209
    -3.9722  -3.4012  -3.3238  -3.2969  -3.2468  -3.0846  -2.9599  -2.8723
    -2.8657  -2.8129  -2.7989  -2.7558  -2.7181  -2.6668  -2.6171  -2.5878
    -2.5151  -2.4995  -2.4198  -2.4100  -2.2765  -2.2139  -2.1168  -2.1101
    -1.6646  -1.4118  -0.8782  -0.8548  -0.4965  -0.4671  -0.2746  -0.0889
    -0.0874  -0.0606   0.3995   0.4299   0.4924   0.7143   0.7600   0.7937
     1.0718   1.0961   1.1583   1.2171   1.3783   1.4140   1.5130   1.5578

          k = 0.0500 0.0866 0.0000 ( 48567 PWs)   bands (ev):

   -15.9108 -15.0463 -15.0206 -14.8830 -14.8818 -14.7469 -14.7201 -13.3461
   -13.2507 -13.2126 -13.0351 -13.0009 -12.9346 -12.9153 -12.8962 -12.8834
   -11.9950 -11.0353 -11.0150 -10.8669 -10.8621 -10.7209 -10.7001  -9.9455
    -9.9156  -9.9143  -9.2744  -9.2570  -8.9582  -8.9320  -8.8283  -8.8175
    -8.7505  -8.6322  -8.6057  -8.4845  -7.2025  -7.1966  -6.9230  -6.9195
    -6.9170  -6.8626  -6.8361  -6.7719  -6.7573  -6.6317  -6.6266  -6.5302
    -6.5177  -6.5046  -6.5001  -6.4336  -6.1919  -6.1403  -6.1263  -5.1081
    -5.0789  -4.9520  -4.9482  -4.8589  -4.8217  -4.8212  -4.8165  -4.7859
    -4.5475  -4.5460  -4.2374  -4.2261  -4.1656  -4.1646  -4.0545  -4.0452
    -3.9636  -3.3354  -3.2908  -3.2664  -3.2388  -3.0563  -2.9807  -2.8510
    -2.8467  -2.8108  -2.7948  -2.7650  -2.6804  -2.6389  -2.6037  -2.6003
    -2.5190  -2.5036  -2.3985  -2.3942  -2.2938  -2.2286  -2.1602  -2.1538
    -1.5592  -1.3965  -0.8262  -0.8122  -0.5315  -0.5077  -0.3865  -0.0995
    -0.0987  -0.0733   0.3895   0.4132   0.4628   0.6843   0.7346   0.7527
     1.0854   1.1017   1.1459   1.2102   1.4159   1.4344   1.5188   1.5550

          k = 0.0333 0.0577 0.0000 ( 48513 PWs)   bands (ev):

   -15.9151 -15.0007 -14.9754 -14.8873 -14.8857 -14.7995 -14.7727 -13.2735
   -13.2170 -13.1781 -13.0693 -13.0358 -12.9850 -12.9017 -12.8984 -12.8869
   -11.9997 -10.9863 -10.9663 -10.8716 -10.8667 -10.7754 -10.7545  -9.9493
    -9.9359  -9.9345  -9.2098  -9.2015  -8.9692  -8.9597  -8.8023  -8.7825
    -8.7417  -8.6511  -8.6254  -8.5567  -7.1075  -7.1013  -6.9176  -6.9148
    -6.8411  -6.7556  -6.7452  -6.7386  -6.7237  -6.7194  -6.7183  -6.5923
    -6.5780  -6.5154  -6.5032  -6.4983  -6.2835  -6.2539  -6.1535  -5.0668
    -5.0379  -4.9564  -4.9522  -4.8695  -4.8388  -4.8342  -4.8171  -4.8169
    -4.5595  -4.5591  -4.2035  -4.1925  -4.1476  -4.1467  -4.0810  -4.0714
    -3.9576  -3.2786  -3.2607  -3.2452  -3.2328  -3.0322  -3.0000  -2.8451
    -2.8432  -2.8084  -2.7949  -2.7854  -2.6460  -2.6140  -2.5930  -2.5803
    -2.5313  -2.5153  -2.3710  -2.3685  -2.3094  -2.2411  -2.2011  -2.1952
    -1.4673  -1.3855  -0.7785  -0.7710  -0.5685  -0.5457  -0.4828  -0.1081
    -0.1078  -0.0832   0.3834   0.3969   0.4437   0.6606   0.7151   0.7227
     1.0983   1.1072   1.1382   1.2054   1.4440   1.4515   1.5332   1.5588

          k = 0.0167 0.0289 0.0000 ( 48517 PWs)   bands (ev):

   -15.9179 -14.9541 -14.9307 -14.8910 -14.8870 -14.8492 -14.8230 -13.2041
   -13.1841 -13.1431 -13.1016 -13.0713 -13.0501 -12.8934 -12.8920 -12.8890
   -12.0026 -10.9364 -10.9172 -10.8747 -10.8692 -10.8284 -10.8072  -9.9521
    -9.9486  -9.9472  -9.1528  -9.1483  -9.0064  -9.0043  -8.7572  -8.7419
    -8.7161  -8.6763  -8.6498  -8.6246  -7.0118  -7.0054  -6.9147  -6.9121
    -6.8203  -6.8127  -6.7641  -6.7265  -6.7092  -6.6447  -6.6318  -6.6311
    -6.6044  -6.5956  -6.5023  -6.4970  -6.3947  -6.3695  -6.1597  -5.0232
    -4.9965  -4.9600  -4.9530  -4.9180  -4.8886  -4.8185  -4.8151  -4.8149
    -4.5669  -4.5668  -4.1701  -4.1595  -4.1370  -4.1364  -4.1068  -4.0970
    -3.9540  -3.2403  -3.2371  -3.2352  -3.2338  -3.0172  -3.0115  -2.8558
    -2.8545  -2.8054  -2.7957  -2.7943  -2.6153  -2.5962  -2.5761  -2.5703
    -2.5413  -2.5304  -2.3434  -2.3398  -2.3206  -2.2503  -2.2363  -2.2316
    -1.4014  -1.3790  -0.7387  -0.7358  -0.6031  -0.5779  -0.5513  -0.1139
    -0.1138  -0.0897   0.3801   0.3840   0.4343   0.6451   0.7028   0.7046
     1.1077   1.1104   1.1339   1.2025   1.4578   1.4598   1.5616   1.5697

          k = 0.0000 0.0000 0.0000 ( 48515 PWs)   bands (ev):

   -15.9187 -14.9140 -14.9041 -14.9040 -14.8784 -14.8784 -14.8605 -13.1620
   -13.1611 -13.1124 -13.1124 -13.1025 -13.1025 -12.8907 -12.8906 -12.8888
   -12.0036 -10.8930 -10.8825 -10.8825 -10.8656 -10.8656 -10.8478  -9.9534
    -9.9533  -9.9514  -9.1222  -9.1170  -9.0330  -9.0330  -8.7072  -8.7072
    -8.7058  -8.7057  -8.6703  -8.6692  -6.9173  -6.9165  -6.9164  -6.9114
    -6.9113  -6.9010  -6.7002  -6.7001  -6.6847  -6.6717  -6.6717  -6.6609
    -6.5347  -6.5066  -6.5065  -6.4849  -6.4848  -6.4776  -6.1614  -4.9867
    -4.9733  -4.9733  -4.9440  -4.9440  -4.9243  -4.8149  -4.8149  -4.8147
    -4.5694  -4.5694  -4.1428  -4.1372  -4.1372  -4.1260  -4.1260  -4.1224
    -3.9530  -3.2304  -3.2303  -3.2279  -3.2266  -3.0135  -3.0135  -2.8625
    -2.8625  -2.8052  -2.7963  -2.7963  -2.5894  -2.5887  -2.5887  -2.5627
    -2.5408  -2.5408  -2.3279  -2.3279  -2.3208  -2.2576  -2.2503  -2.2503
    -1.3768  -1.3767  -0.7199  -0.7199  -0.6206  -0.5925  -0.5768  -0.1160
    -0.1159  -0.0920   0.3791   0.3791   0.4316   0.6398   0.6985   0.6986
     1.1114   1.1114   1.1325   1.2016   1.4616   1.4616   1.5824   1.5824

          k = 0.0000 0.0289 0.0000 ( 48503 PWs)   bands (ev):

   -15.9180 -14.9489 -14.9185 -14.9070 -14.8703 -14.8628 -14.8286 -13.1894
   -13.1887 -13.1238 -13.1212 -13.0657 -13.0649 -12.8931 -12.8908 -12.8893
   -12.0028 -10.9314 -10.9010 -10.8939 -10.8491 -10.8459 -10.8127  -9.9516
    -9.9507  -9.9478  -9.1462  -9.1419  -9.0113  -9.0104  -8.7451  -8.7449
    -8.6971  -8.6970  -8.6412  -8.6403  -7.0087  -6.9624  -6.9593  -6.8666
    -6.8635  -6.8157  -6.7476  -6.7382  -6.6785  -6.6764  -6.6256  -6.6223
    -6.6086  -6.5570  -6.5553  -6.4484  -6.4368  -6.3784  -6.1600  -5.0180
    -4.9863  -4.9733  -4.9396  -4.9297  -4.8941  -4.8168  -4.8167  -4.8143
    -4.5675  -4.5675  -4.1666  -4.1517  -4.1483  -4.1220  -4.1187  -4.0994
    -3.9537  -3.2367  -3.2351  -3.2322  -3.2309  -3.0146  -3.0137  -2.8568
    -2.8567  -2.8048  -2.7958  -2.7942  -2.6115  -2.5946  -2.5759  -2.5687
    -2.5428  -2.5317  -2.3430  -2.3302  -2.3251  -2.2488  -2.2435  -2.2342
    -1.3953  -1.3785  -0.7345  -0.7322  -0.6070  -0.5812  -0.5575  -0.1143
    -0.1143  -0.0902   0.3798   0.3829   0.4336   0.6438   0.7017   0.7031
     1.1086   1.1107   1.1336   1.2023   1.4589   1.4603   1.5657   1.5715

          k = 0.0000 0.0577 0.0000 ( 48509 PWs)   bands (ev):

   -15.9159 -14.9932 -14.9401 -14.9317 -14.8413 -14.8375 -14.7820 -13.2389
   -13.2376 -13.1253 -13.1220 -13.0167 -13.0165 -12.9012 -12.8916 -12.8904
   -12.0007 -10.9798 -10.9247 -10.9194 -10.8194 -10.8186 -10.7628  -9.9473
    -9.9461  -9.9360  -9.1921  -9.1885  -8.9752  -8.9737  -8.7847  -8.7846
    -8.7028  -8.7027  -8.5946  -8.5936  -7.1037  -7.0116  -7.0088  -6.8209
    -6.8175  -6.8016  -6.7929  -6.7354  -6.7204  -6.6669  -6.6643  -6.6172
    -6.6135  -6.5639  -6.5438  -6.3916  -6.3806  -6.2663  -6.1557  -5.0591
    -5.0069  -4.9971  -4.9113  -4.9052  -4.8486  -4.8246  -4.8246  -4.8139
    -4.5619  -4.5618  -4.1944  -4.1706  -4.1685  -4.1121  -4.1102  -4.0712
    -3.9564  -3.2610  -3.2591  -3.2389  -3.2327  -3.0171  -3.0142  -2.8470
    -2.8451  -2.8078  -2.7934  -2.7909  -2.6375  -2.6097  -2.5886  -2.5664
    -2.5494  -2.5121  -2.3750  -2.3350  -2.3307  -2.2304  -2.2263  -2.2009
    -1.4465  -1.3834  -0.7662  -0.7613  -0.5781  -0.5553  -0.5045  -0.1099
    -0.1098  -0.0853   0.3815   0.3939   0.4401   0.6555   0.7113   0.7164
     1.1009   1.1088   1.1366   1.2044   1.4493   1.4545   1.5388   1.5617

          k = 0.0000 0.0866 0.0000 ( 48559 PWs)   bands (ev):

   -15.9129 -15.0384 -14.9614 -14.9546 -14.8121 -14.8102 -14.7319 -13.2917
   -13.2902 -13.1243 -13.1209 -12.9704 -12.9674 -12.9128 -12.8924 -12.8916
   -11.9971 -11.0291 -10.9475 -10.9431 -10.7897 -10.7896 -10.7105  -9.9402
    -9.9390  -9.9159  -9.2432  -9.2399  -8.9499  -8.9485  -8.8129  -8.8125
    -8.7119  -8.7119  -8.5465  -8.5454  -7.1979  -7.0615  -7.0591  -6.8555
    -6.8544  -6.8420  -6.7757  -6.7715  -6.6777  -6.6736  -6.6482  -6.6427
    -6.6238  -6.4999  -6.4753  -6.3358  -6.3238  -6.1728  -6.1308  -5.0997
    -5.0268  -5.0190  -4.8822  -4.8785  -4.8399  -4.8399  -4.8112  -4.7986
    -4.5525  -4.5523  -4.2233  -4.1962  -4.1944  -4.1073  -4.1060  -4.0397
    -3.9611  -3.2971  -3.2949  -3.2583  -3.2417  -3.0194  -3.0146  -2.8493
    -2.8382  -2.8149  -2.7823  -2.7809  -2.6670  -2.6279  -2.6017  -2.5714
    -2.5609  -2.4870  -2.4099  -2.3396  -2.3358  -2.2060  -2.2028  -2.1636
    -1.5202  -1.3915  -0.8041  -0.7978  -0.5452  -0.5242  -0.4276  -0.1030
    -0.1029  -0.0777   0.3836   0.4114   0.4518   0.6733   0.7276   0.7382
     1.0898   1.1059   1.1416   1.2080   1.4311   1.4411   1.5186   1.5586

          k = 0.0000 0.1155 0.0000 ( 48561 PWs)   bands (ev):

   -15.9082 -15.0834 -14.9818 -14.9759 -14.7825 -14.7816 -14.6799 -13.3454
   -13.3438 -13.1225 -13.1189 -12.9504 -12.9235 -12.9092 -12.8890 -12.8887
   -11.9921 -11.0779 -10.9691 -10.9651 -10.7594 -10.7587 -10.6573  -9.9306
    -9.9293  -9.8892  -9.2960  -9.2928  -8.9536  -8.9526  -8.8185  -8.8176
    -8.7182  -8.7181  -8.4955  -8.4943  -7.2907  -7.1120  -7.1098  -6.9676
    -6.9045  -6.8967  -6.7393  -6.7375  -6.7275  -6.7256  -6.6200  -6.6156
    -6.5326  -6.4331  -6.4027  -6.2822  -6.2679  -6.1523  -6.0284  -5.1385
    -5.0457  -5.0391  -4.8575  -4.8573  -4.8517  -4.8497  -4.8088  -4.7461
    -4.5393  -4.5391  -4.2518  -4.2248  -4.2229  -4.1042  -4.1033  -4.0091
    -3.9675  -3.3402  -3.3378  -3.2788  -3.2457  -3.0210  -3.0147  -2.8672
    -2.8430  -2.8286  -2.7712  -2.7672  -2.6990  -2.6392  -2.6083  -2.5803
    -2.5755  -2.4591  -2.4452  -2.3436  -2.3402  -2.1778  -2.1752  -2.1254
    -1.6072  -1.4028  -0.8445  -0.8376  -0.5118  -0.4918  -0.3360  -0.0946
    -0.0936  -0.0679   0.3865   0.4346   0.4685   0.6946   0.7521   0.7676
     1.0769   1.1030   1.1489   1.2131   1.4063   1.4202   1.5071   1.5616

          k = 0.0000 0.1443 0.0000 ( 48561 PWs)   bands (ev):

   -15.9023 -15.1276 -15.0010 -14.9958 -14.7517 -14.7516 -14.6264 -13.3995
   -13.3978 -13.1199 -13.1161 -12.9702 -12.9079 -12.9027 -12.8590 -12.8561
   -11.9855 -11.1260 -10.9895 -10.9859 -10.7279 -10.7268 -10.6037  -9.9179
    -9.9166  -9.8553  -9.3494  -9.3464  -8.9828  -8.9820  -8.8180  -8.8170
    -8.7089  -8.7083  -8.4441  -8.4428  -7.3819  -7.1629  -7.1610  -7.0822
    -6.9521  -6.9454  -6.7963  -6.7920  -6.6882  -6.6838  -6.5853  -6.5812
    -6.4431  -6.3641  -6.3264  -6.2326  -6.2133  -6.1400  -5.9154  -5.1748
    -5.0633  -5.0574  -4.8810  -4.8807  -4.8210  -4.8195  -4.8046  -4.6917
    -4.5224  -4.5222  -4.2803  -4.2572  -4.2548  -4.1070  -4.1065  -3.9802
    -3.9759  -3.3880  -3.3855  -3.3082  -3.2533  -3.0213  -3.0140  -2.8933
    -2.8589  -2.8511  -2.7680  -2.7665  -2.7288  -2.6363  -2.6154  -2.5864
    -2.5782  -2.4796  -2.4296  -2.3473  -2.3445  -2.1470  -2.1448  -2.0868
    -1.7014  -1.4171  -0.8864  -0.8793  -0.4789  -0.4595  -0.2359  -0.0854
    -0.0825  -0.0566   0.3917   0.4619   0.4888   0.7155   0.7864   0.8031
     1.0643   1.1017   1.1589   1.2196   1.3804   1.3956   1.5015   1.5649

          k = 0.0000 0.1732 0.0000 ( 48571 PWs)   bands (ev):

   -15.8952 -15.1708 -15.0190 -15.0141 -14.7204 -14.7201 -14.5718 -13.4538
   -13.4521 -13.1168 -13.1129 -13.0000 -12.9093 -12.9056 -12.8140 -12.8109
   -11.9774 -11.1733 -11.0086 -11.0052 -10.6952 -10.6939 -10.5501  -9.9024
    -9.9011  -9.8133  -9.4033  -9.4003  -9.0215  -9.0207  -8.8330  -8.8323
    -8.6778  -8.6767  -8.3935  -8.3920  -7.4711  -7.2141  -7.2130  -7.1961
    -6.9962  -6.9902  -6.8544  -6.8502  -6.6456  -6.6412  -6.5468  -6.5430
    -6.3566  -6.2929  -6.2471  -6.1899  -6.1587  -6.1205  -5.8012  -5.2069
    -5.0791  -5.0738  -4.9104  -4.9100  -4.7983  -4.7891  -4.7880  -4.6359
    -4.5019  -4.5016  -4.3098  -4.2956  -4.2911  -4.1117  -4.1114  -3.9868
    -3.9493  -3.4389  -3.4364  -3.3423  -3.2635  -3.0226  -3.0150  -2.9254
    -2.8873  -2.8855  -2.7796  -2.7772  -2.7491  -2.6393  -2.6322  -2.5751
    -2.5551  -2.5124  -2.3994  -2.3506  -2.3492  -2.1145  -2.1126  -2.0487
    -1.7985  -1.4342  -0.9294  -0.9224  -0.4475  -0.4284  -0.1314  -0.0761
    -0.0700  -0.0445   0.4003   0.4917   0.5110   0.7338   0.8304   0.8419
     1.0542   1.1044   1.1715   1.2272   1.3570   1.3718   1.4993   1.5614

          k = 0.0000 0.2021 0.0000 ( 48561 PWs)   bands (ev):

   -15.8865 -15.2131 -15.0357 -15.0312 -14.6881 -14.6875 -14.5162 -13.5080
   -13.5063 -13.1130 -13.1090 -13.0353 -12.9135 -12.9101 -12.7684 -12.7655
   -11.9678 -11.2194 -11.0266 -11.0233 -10.6612 -10.6598 -10.4967  -9.8844
    -9.8831  -9.7649  -9.4573  -9.4543  -9.0624  -9.0615  -8.8606  -8.8601
    -8.6343  -8.6329  -8.3424  -8.3408  -7.5578  -7.3100  -7.2654  -7.2632
    -7.0370  -7.0317  -6.9131  -6.9089  -6.6033  -6.5991  -6.5030  -6.4995
    -6.2731  -6.2197  -6.1675  -6.1593  -6.1054  -6.0874  -5.6883  -5.2343
    -5.0934  -5.0885  -4.9428  -4.9423  -4.7922  -4.7561  -4.7555  -4.5787
    -4.4778  -4.4774  -4.3457  -4.3400  -4.3264  -4.1193  -4.1192  -4.0002
    -3.9185  -3.4915  -3.4890  -3.3808  -3.2717  -3.0253  -3.0188  -2.9629
    -2.9299  -2.9259  -2.7980  -2.7904  -2.7624  -2.6562  -2.6525  -2.5508
    -2.5338  -2.5198  -2.3727  -2.3545  -2.3500  -2.0809  -2.0788  -2.0120
    -1.8948  -1.4541  -0.9731  -0.9664  -0.4177  -0.3988  -0.0688  -0.0567
    -0.0369  -0.0198   0.4136   0.5219   0.5333   0.7485   0.8795   0.8821
     1.0486   1.1155   1.1851   1.2355   1.3385   1.3549   1.5005   1.5510

          k = 0.0000 0.2309 0.0000 ( 48579 PWs)   bands (ev):

   -15.8767 -15.2541 -15.0515 -15.0471 -14.6547 -14.6538 -14.4598 -13.5621
   -13.5603 -13.1089 -13.1046 -13.0750 -12.9188 -12.9154 -12.7242 -12.7215
   -11.9567 -11.2647 -11.0432 -11.0400 -10.6262 -10.6247 -10.4438  -9.8634
    -9.8620  -9.7109  -9.5112  -9.5083  -9.1036  -9.1026  -8.8949  -8.8945
    -8.5854  -8.5839  -8.2909  -8.2891  -7.6418  -7.4234  -7.3171  -7.3151
    -7.0752  -7.0704  -6.9719  -6.9678  -6.5621  -6.5583  -6.4559  -6.4528
    -6.1926  -6.1451  -6.1418  -6.0864  -6.0552  -6.0457  -5.5740  -5.2541
    -5.1069  -5.1021  -4.9796  -4.9790  -4.7859  -4.7221  -4.7218  -4.5208
    -4.4502  -4.4498  -4.3902  -4.3870  -4.3549  -4.1299  -4.1296  -4.0169
    -3.8858  -3.5447  -3.5422  -3.4273  -3.2836  -3.0341  -3.0325  -3.0050
    -2.9774  -2.9645  -2.8159  -2.8036  -2.7751  -2.6767  -2.6733  -2.5759
    -2.4975  -2.4799  -2.3675  -2.3606  -2.3277  -2.0484  -2.0439  -2.0019
    -1.9618  -1.4766  -1.0173  -1.0109  -0.3902  -0.3710  -0.0622  -0.0430
    -0.0227   0.0835   0.4316   0.5503   0.5541   0.7592   0.9099   0.9377
     1.0494   1.1395   1.1960   1.2437   1.3267   1.3528   1.5062   1.5379

          k = 0.0000 0.2598 0.0000 ( 48583 PWs)   bands (ev):

   -15.8655 -15.2940 -15.0660 -15.0618 -14.6200 -14.6190 -14.4024 -13.6158
   -13.6139 -13.1182 -13.1041 -13.0997 -12.9248 -12.9213 -12.6821 -12.6794
   -11.9441 -11.3087 -11.0586 -11.0554 -10.5901 -10.5885 -10.3921  -9.8397
    -9.8384  -9.6498  -9.5649  -9.5619  -9.1441  -9.1429  -8.9337  -8.9334
    -8.5343  -8.5327  -8.2383  -8.2365  -7.7233  -7.5355  -7.3689  -7.3670
    -7.1108  -7.1065  -7.0297  -7.0257  -6.5226  -6.5191  -6.4049  -6.4023
    -6.1299  -6.1109  -6.0686  -6.0111  -6.0065  -5.9998  -5.4622  -5.2645
    -5.1190  -5.1143  -5.0216  -5.0209  -4.7770  -4.6865  -4.6863  -4.4655
    -4.4401  -4.4347  -4.4191  -4.4189  -4.3802  -4.1443  -4.1436  -4.0371
    -3.8544  -3.5981  -3.5958  -3.4761  -3.2970  -3.0715  -3.0693  -3.0498
    -3.0060  -2.9859  -2.8325  -2.8166  -2.7877  -2.6970  -2.6932  -2.6031
    -2.4561  -2.4390  -2.3723  -2.3671  -2.2949  -2.0937  -2.0078  -2.0063
    -1.9337  -1.5014  -1.0620  -1.0559  -0.3655  -0.3456  -0.0579  -0.0292
    -0.0119   0.1882   0.4539   0.5726   0.5752   0.7659   0.9291   0.9907
     1.0593   1.1767   1.2013   1.2523   1.3245   1.3719   1.5182   1.5255

          k = 0.0000 0.2887 0.0000 ( 48601 PWs)   bands (ev):

   -15.8531 -15.3330 -15.0792 -15.0751 -14.5843 -14.5831 -14.3445 -13.6690
   -13.6672 -13.1650 -13.0990 -13.0943 -12.9316 -12.9279 -12.6422 -12.6396
   -11.9301 -11.3516 -11.0726 -11.0695 -10.5528 -10.5512 -10.3416  -9.8139
    -9.8126  -9.6184  -9.6157  -9.5846  -9.1829  -9.1815  -8.9757  -8.9755
    -8.4820  -8.4803  -8.1862  -8.1841  -7.8015  -7.6472  -7.4210  -7.4191
    -7.1439  -7.1400  -7.0877  -7.0838  -6.4856  -6.4826  -6.3507  -6.3486
    -6.1142  -6.0381  -5.9914  -5.9586  -5.9566  -5.9382  -5.3514  -5.2642
    -5.1294  -5.1248  -5.0671  -5.0664  -4.7687  -4.6493  -4.6493  -4.4942
    -4.4940  -4.4065  -4.4008  -4.3850  -4.3847  -4.1580  -4.1569  -4.0612
    -3.8243  -3.6511  -3.6488  -3.5308  -3.3127  -3.1292  -3.1272  -3.1014
    -3.0141  -2.9932  -2.8481  -2.8291  -2.7999  -2.7158  -2.7114  -2.6287
    -2.4154  -2.3984  -2.3779  -2.3728  -2.2602  -2.1816  -1.9706  -1.9702
    -1.8999  -1.5284  -1.1069  -1.1011  -0.3436  -0.3225  -0.0559  -0.0157
    -0.0021   0.2901   0.4787   0.5886   0.5953   0.7697   0.9379   1.0277
     1.0825   1.2072   1.2166   1.2623   1.3399   1.4104   1.5177   1.5393

          k = 0.0000 0.3175 0.0000 ( 48613 PWs)   bands (ev):

   -15.8393 -15.3707 -15.0912 -15.0873 -14.5475 -14.5462 -14.2857 -13.7220
   -13.7202 -13.2146 -13.0933 -13.0883 -12.9388 -12.9348 -12.6050 -12.6024
   -11.9145 -11.3933 -11.0852 -11.0822 -10.5146 -10.5130 -10.2928  -9.7862
    -9.7849  -9.6715  -9.6685  -9.5144  -9.2195  -9.2177  -9.0192  -9.0191
    -8.4290  -8.4273  -8.1340  -8.1319  -7.8766  -7.7550  -7.4732  -7.4714
    -7.1736  -7.1703  -7.1448  -7.1412  -6.4514  -6.4487  -6.2918  -6.2901
    -6.0996  -5.9717  -5.9208  -5.9118  -5.9065  -5.8738  -5.2500  -5.2399
    -5.1392  -5.1344  -5.1159  -5.1149  -4.7603  -4.6120  -4.6120  -4.5514
    -4.5509  -4.4306  -4.3487  -4.3479  -4.3410  -4.1745  -4.1728  -4.0889
    -3.7952  -3.7044  -3.7021  -3.5884  -3.3290  -3.1943  -3.1928  -3.1548
    -3.0182  -2.9967  -2.8628  -2.8412  -2.8114  -2.7328  -2.7279  -2.6519
    -2.3892  -2.3866  -2.3660  -2.3566  -2.2657  -2.2245  -1.9328  -1.9324
    -1.8671  -1.5573  -1.1523  -1.1468  -0.3249  -0.3018  -0.0552  -0.0029
     0.0066   0.3877   0.5036   0.6026   0.6102   0.7726   0.9393   1.0435
     1.1107   1.2269   1.2412   1.2734   1.3848   1.4578   1.5240   1.5718

          k = 0.0000 0.3464 0.0000 ( 48605 PWs)   bands (ev):

   -15.8241 -15.4073 -15.1019 -15.0980 -14.5096 -14.5083 -14.2265 -13.7745
   -13.7727 -13.2668 -13.0873 -13.0818 -12.9465 -12.9421 -12.5704 -12.5679
   -11.8977 -11.4335 -11.0966 -11.0936 -10.4752 -10.4736 -10.2463  -9.7558
    -9.7547  -9.7241  -9.7207  -9.4404  -9.2531  -9.2507  -9.0647  -9.0647
    -8.3757  -8.3740  -8.0817  -8.0794  -7.9502  -7.8620  -7.5256  -7.5238
    -7.2074  -7.2059  -7.1923  -7.1913  -6.4205  -6.4181  -6.2306  -6.2292
    -6.0836  -5.9193  -5.8756  -5.8695  -5.8307  -5.8094  -5.2189  -5.1707
    -5.1700  -5.1458  -5.1424  -5.1283  -4.7485  -4.6132  -4.6122  -4.5727
    -4.5707  -4.4543  -4.3092  -4.3087  -4.2839  -4.1894  -4.1871  -4.1192
    -3.7659  -3.7548  -3.7538  -3.6528  -3.3461  -3.2627  -3.2615  -3.2106
    -3.0226  -3.0004  -2.8755  -2.8520  -2.8219  -2.7477  -2.7424  -2.6724
    -2.3929  -2.3921  -2.3447  -2.3309  -2.3184  -2.1880  -1.8942  -1.8938
    -1.8363  -1.5879  -1.1976  -1.1924  -0.3096  -0.2837  -0.0553   0.0092
     0.0142   0.4794   0.5256   0.6155   0.6205   0.7771   0.9361   1.0454
     1.1335   1.2492   1.2591   1.2851   1.4544   1.4938   1.5659   1.6169

          k = 0.0000 0.3753 0.0000 ( 48609 PWs)   bands (ev):

   -15.8077 -15.4426 -15.1112 -15.1074 -14.4709 -14.4694 -14.1665 -13.8264
   -13.8245 -13.3211 -13.0811 -13.0750 -12.9546 -12.9496 -12.5391 -12.5366
   -11.8793 -11.4726 -11.1066 -11.1037 -10.4347 -10.4331 -10.2027  -9.7765
    -9.7740  -9.7232  -9.7211  -9.3642  -9.2840  -9.2794  -9.1114  -9.1113
    -8.3223  -8.3206  -8.0299  -8.0264  -8.0264  -7.9575  -7.5780  -7.5762
    -7.2632  -7.2598  -7.2193  -7.2167  -6.3929  -6.3908  -6.1668  -6.1657
    -6.0678  -5.8858  -5.8365  -5.8312  -5.7502  -5.7392  -5.2260  -5.2253
    -5.1755  -5.1524  -5.1430  -5.0207  -4.7372  -4.6781  -4.6777  -4.5358
    -4.5324  -4.4752  -4.2683  -4.2679  -4.2374  -4.2021  -4.2009  -4.1455
    -3.8054  -3.8028  -3.7353  -3.7208  -3.3650  -3.3328  -3.3318  -3.2683
    -3.0282  -3.0058  -2.8860  -2.8613  -2.8313  -2.7609  -2.7553  -2.6901
    -2.4176  -2.3993  -2.3966  -2.2966  -2.2832  -2.1508  -1.8552  -1.8544
    -1.8078  -1.6199  -1.2429  -1.2380  -0.2981  -0.2683  -0.0556   0.0202
     0.0204   0.5419   0.5645   0.6273   0.6274   0.7859   0.9296   1.0378
     1.1563   1.2492   1.2843   1.2986   1.5267   1.5352   1.6374   1.6736

          k = 0.0000 0.4041 0.0000 ( 48599 PWs)   bands (ev):

   -15.7902 -15.4768 -15.1194 -15.1157 -14.4308 -14.4293 -14.1060 -13.8776
   -13.8757 -13.3772 -13.0746 -13.0678 -12.9630 -12.9573 -12.5113 -12.5088
   -11.8596 -11.5104 -11.1152 -11.1123 -10.3934 -10.3917 -10.1629  -9.8282
    -9.8253  -9.6886  -9.6866  -9.3178  -9.3109  -9.2712  -9.1586  -9.1584
    -8.2687  -8.2671  -8.1166  -8.0334  -7.9756  -7.9732  -7.6307  -7.6289
    -7.3192  -7.3157  -7.2395  -7.2369  -6.3687  -6.3668  -6.1015  -6.1004
    -6.0507  -5.8698  -5.8015  -5.7977  -5.6694  -5.6639  -5.2846  -5.2838
    -5.1581  -5.1578  -5.1046  -4.9140  -4.7436  -4.7431  -4.7250  -4.5149
    -4.4924  -4.4798  -4.2439  -4.2272  -4.2271  -4.2162  -4.2091  -4.1314
    -3.8514  -3.8489  -3.7937  -3.7064  -3.4036  -3.4027  -3.3860  -3.3275
    -3.0349  -3.0129  -2.8931  -2.8682  -2.8397  -2.7723  -2.7664  -2.7048
    -2.4813  -2.4053  -2.4033  -2.2637  -2.2501  -2.1131  -1.8159  -1.8143
    -1.7819  -1.6527  -1.2883  -1.2836  -0.2899  -0.2555  -0.0556   0.0256
     0.0301   0.5533   0.6321   0.6332   0.6441   0.8006   0.9212   1.0257
     1.1810   1.2458   1.2958   1.3111   1.5708   1.6169   1.7151   1.7312

          k = 0.0000 0.4330 0.0000 ( 48595 PWs)   bands (ev):

   -15.7712 -15.5097 -15.1264 -15.1227 -14.3897 -14.3882 -14.0452 -13.9280
   -13.9262 -13.4349 -13.0680 -13.0602 -12.9716 -12.9649 -12.4872 -12.4847
   -11.8383 -11.5468 -11.1226 -11.1197 -10.3510 -10.3493 -10.1273  -9.8793
    -9.8763  -9.6524  -9.6503  -9.3358  -9.3347  -9.2064  -9.2056  -9.1914
    -8.2173  -8.2153  -8.2133  -8.0910  -7.9225  -7.9200  -7.6834  -7.6815
    -7.3759  -7.3724  -7.2564  -7.2539  -6.3481  -6.3463  -6.0353  -6.0319
    -6.0310  -5.8665  -5.7715  -5.7689  -5.5887  -5.5861  -5.3458  -5.3450
    -5.1623  -5.1606  -5.0351  -4.8124  -4.8119  -4.8094  -4.7133  -4.5300
    -4.4523  -4.4452  -4.2828  -4.2302  -4.2251  -4.1884  -4.1884  -4.0796
    -3.8910  -3.8886  -3.8697  -3.6769  -3.4741  -3.4734  -3.4072  -3.3874
    -3.0419  -3.0207  -2.8971  -2.8724  -2.8468  -2.7820  -2.7759  -2.7159
    -2.5380  -2.4106  -2.4087  -2.2351  -2.2213  -2.0750  -1.7779  -1.7743
    -1.7583  -1.6846  -1.3336  -1.3290  -0.2848  -0.2453  -0.0552   0.0297
     0.0386   0.5602   0.6355   0.6413   0.7088   0.8205   0.9117   1.0125
     1.2064   1.2409   1.3001   1.3183   1.6193   1.6867   1.7396   1.8095

          k = 0.0000 0.4619 0.0000 ( 48575 PWs)   bands (ev):

   -15.7511 -15.5410 -15.1321 -15.1284 -14.3475 -14.3459 -13.9841 -13.9780
   -13.9761 -13.4936 -13.0614 -13.0523 -12.9804 -12.9723 -12.4671 -12.4647
   -11.8156 -11.5820 -11.1286 -11.1258 -10.3076 -10.3059 -10.0968  -9.9297
    -9.9265  -9.6143  -9.6119  -9.3551  -9.3550  -9.2534  -9.2526  -9.1051
    -8.3198  -8.1617  -8.1606  -8.1359  -7.8695  -7.8668  -7.7361  -7.7343
    -7.4319  -7.4285  -7.2703  -7.2680  -6.3313  -6.3296  -6.0159  -5.9628
    -5.9621  -5.8716  -5.7463  -5.7444  -5.5072  -5.5060  -5.4082  -5.4074
    -5.1658  -5.1636  -4.9572  -4.8827  -4.8821  -4.7044  -4.6998  -4.5516
    -4.4158  -4.4034  -4.3305  -4.2420  -4.2386  -4.1592  -4.1589  -4.0226
    -3.9494  -3.9182  -3.9160  -3.6454  -3.5440  -3.5434  -3.4473  -3.4313
    -3.0489  -3.0288  -2.8986  -2.8746  -2.8527  -2.7904  -2.7841  -2.7231
    -2.5868  -2.4152  -2.4134  -2.2124  -2.1985  -2.0365  -1.7529  -1.7436
    -1.7284  -1.7039  -1.3787  -1.3743  -0.2821  -0.2374  -0.0543   0.0328
     0.0457   0.5643   0.6384   0.6442   0.7651   0.8429   0.9022   1.0000
     1.2308   1.2357   1.2994   1.3230   1.6615   1.7312   1.7587   1.8922

          k = 0.0000 0.4907 0.0000 ( 48569 PWs)   bands (ev):

   -15.7299 -15.5712 -15.1365 -15.1329 -14.3046 -14.3029 -14.0270 -14.0251
   -13.9227 -13.5530 -13.0553 -13.0442 -12.9891 -12.9792 -12.4513 -12.4489
   -11.7915 -11.6158 -11.1333 -11.1305 -10.2633 -10.2618 -10.0725  -9.9795
    -9.9756  -9.5745  -9.5716  -9.3715  -9.3711  -9.3006  -9.2992  -9.0139
    -8.4231  -8.1723  -8.1082  -8.1063  -7.8155  -7.8128  -7.7890  -7.7871
    -7.4878  -7.4845  -7.2811  -7.2789  -6.3180  -6.3164  -5.9977  -5.8940
    -5.8931  -5.8828  -5.7269  -5.7256  -5.4765  -5.4750  -5.4228  -5.4226
    -5.1682  -5.1658  -4.9554  -4.9548  -4.8757  -4.6823  -4.6030  -4.5712
    -4.4199  -4.3606  -4.3455  -4.2524  -4.2500  -4.1490  -4.1481  -4.0365
    -3.9632  -3.9228  -3.9207  -3.6170  -3.6127  -3.6121  -3.5044  -3.4547
    -3.0556  -3.0365  -2.8992  -2.8757  -2.8574  -2.7978  -2.7911  -2.7262
    -2.6276  -2.4188  -2.4171  -2.1942  -2.1801  -1.9979  -1.7719  -1.7270
    -1.6876  -1.6797  -1.4237  -1.4193  -0.2810  -0.2318  -0.0532   0.0349
     0.0512   0.5669   0.6409   0.6450   0.8098   0.8646   0.8934   0.9893
     1.2308   1.2523   1.2964   1.3261   1.6918   1.7539   1.7816   1.9813

          k = 0.0000 0.5196 0.0000 ( 48597 PWs)   bands (ev):

   -15.7075 -15.5998 -15.1397 -15.1361 -14.2606 -14.2589 -14.0754 -14.0736
   -13.8614 -13.6131 -13.0500 -13.0360 -12.9980 -12.9851 -12.4399 -12.4375
   -11.7664 -11.6481 -11.1366 -11.1337 -10.2182 -10.2169 -10.0564 -10.0287
   -10.0223  -9.5345  -9.5308  -9.3849  -9.3842  -9.3457  -9.3432  -8.9206
    -8.5253  -8.1977  -8.0550  -8.0533  -7.8420  -7.8400  -7.7615  -7.7586
    -7.5436  -7.5403  -7.2887  -7.2866  -6.3085  -6.3069  -5.9794  -5.8972
    -5.8246  -5.8235  -5.7119  -5.7110  -5.5441  -5.5425  -5.3443  -5.3438
    -5.1701  -5.1676  -5.0302  -5.0295  -4.7928  -4.6680  -4.5911  -4.5081
    -4.4752  -4.3175  -4.3115  -4.2596  -4.2581  -4.1632  -4.1615  -4.1219
    -3.9112  -3.9002  -3.8979  -3.6794  -3.6788  -3.5895  -3.5580  -3.4784
    -3.0609  -3.0426  -2.8991  -2.8760  -2.8607  -2.8036  -2.7965  -2.7246
    -2.6607  -2.4214  -2.4198  -2.1806  -2.1664  -1.9592  -1.8062  -1.7156
    -1.6453  -1.6404  -1.4684  -1.4639  -0.2809  -0.2280  -0.0523   0.0362
     0.0551   0.5683   0.6430   0.6449   0.8419   0.8824   0.8863   0.9813
     1.2269   1.2688   1.2943   1.3272   1.7107   1.7653   1.8087   1.9784

          k = 0.0000 0.5485 0.0000 ( 48596 PWs)   bands (ev):

   -15.6851 -15.6262 -15.1415 -15.1379 -14.2157 -14.2139 -14.1229 -14.1212
   -13.8013 -13.6728 -13.0462 -13.0282 -13.0061 -12.9892 -12.4330 -12.4306
   -11.7402 -11.6784 -11.1387 -11.1358 -10.1722 -10.1715 -10.0769 -10.0768
   -10.0385  -9.4947  -9.4886  -9.4029  -9.4017  -9.3791  -9.3762  -8.8246
    -8.6254  -8.2133  -8.0018  -8.0003  -7.8949  -7.8927  -7.7074  -7.7044
    -7.5986  -7.5955  -7.2936  -7.2916  -6.3028  -6.3013  -5.9626  -5.9126
    -5.7548  -5.7528  -5.7030  -5.7024  -5.6124  -5.6098  -5.2648  -5.2641
    -5.1713  -5.1689  -5.1062  -5.1056  -4.7104  -4.6532  -4.6087  -4.5530
    -4.4040  -4.2759  -4.2719  -4.2629  -4.2615  -4.2084  -4.1934  -4.1910
    -3.8688  -3.8578  -3.8567  -3.7431  -3.7423  -3.6014  -3.5639  -3.5054
    -3.0640  -3.0463  -2.8981  -2.8753  -2.8627  -2.8068  -2.7996  -2.7179
    -2.6865  -2.4230  -2.4214  -2.1731  -2.1589  -1.9207  -1.8430  -1.7091
    -1.6027  -1.5991  -1.5122  -1.5073  -0.2810  -0.2257  -0.0518   0.0371
     0.0576   0.5689   0.6445   0.6447   0.8613   0.8818   0.8941   0.9763
     1.2245   1.2773   1.2957   1.3266   1.7209   1.7709   1.8389   1.9374

          k = 0.0000 0.5774 0.0000 ( 48666 PWs)   bands (ev):

   -15.6699 -15.6428 -15.1423 -15.1387 -14.1703 -14.1692 -14.1685 -14.1676
   -13.7555 -13.7186 -13.0449 -13.0238 -13.0108 -12.9908 -12.4308 -12.4284
   -11.7203 -11.6998 -11.1395 -11.1367 -10.1343 -10.1310 -10.1192 -10.1136
   -10.0361  -9.4693  -9.4542  -9.4351  -9.4236  -9.3869  -9.3852  -8.7366
    -8.7156  -8.2185  -7.9548  -7.9540  -7.9427  -7.9383  -7.6548  -7.6519
    -7.6507  -7.6499  -7.2961  -7.2941  -6.3011  -6.2996  -5.9536  -5.9214
    -5.7041  -5.7037  -5.6985  -5.6847  -5.6785  -5.6631  -5.1951  -5.1924
    -5.1871  -5.1847  -5.1621  -5.1606  -4.6448  -4.6336  -4.6262  -4.6186
    -4.3267  -4.2986  -4.2689  -4.2559  -4.2328  -4.2318  -4.2311  -4.2246
    -3.8505  -3.8136  -3.8112  -3.7961  -3.7927  -3.6191  -3.5493  -3.5210
    -3.0654  -3.0477  -2.8983  -2.8754  -2.8634  -2.8082  -2.8009  -2.7065
    -2.7044  -2.4237  -2.4220  -2.1709  -2.1566  -1.8883  -1.8750  -1.7069
    -1.5686  -1.5678  -1.5469  -1.5395  -0.2812  -0.2251  -0.0516   0.0372
     0.0583   0.5691   0.6445   0.6450   0.8676   0.8801   0.8982   0.9746
     1.2236   1.2790   1.2977   1.3260   1.7240   1.7725   1.8590   1.9132

     Writing output data file h2.save/

     init_run     :      1.74s CPU      1.83s WALL (       1 calls)
     electrons    :  16607.97s CPU  16657.07s WALL (       1 calls)

     Called by init_run:
     wfcinit      :      0.00s CPU      0.00s WALL (       1 calls)
     potinit      :      0.54s CPU      0.60s WALL (       1 calls)
     hinit0       :      1.08s CPU      1.10s WALL (       1 calls)

     Called by electrons:
     c_bands      :  16607.97s CPU  16657.07s WALL (       1 calls)
     v_of_rho     :      0.49s CPU      0.52s WALL (       1 calls)

     Called by c_bands:
     init_us_2    :      5.14s CPU      5.29s WALL (      61 calls)
     cegterg      :  10268.51s CPU  10296.41s WALL (     122 calls)

     Called by sum_band:

     Called by *egterg:
     h_psi        :   9973.40s CPU  10001.13s WALL (    1933 calls)
     g_psi        :     23.94s CPU     23.96s WALL (    1750 calls)
     cdiaghg      :    234.83s CPU    234.87s WALL (    1811 calls)

     Called by h_psi:
     h_psi:pot    :   9953.32s CPU   9967.55s WALL (    1933 calls)
     h_psi:calbec :   2898.63s CPU   2908.94s WALL (    1933 calls)
     vloc_psi     :   4589.72s CPU   4593.32s WALL (    1933 calls)
     add_vuspsi   :   2464.95s CPU   2465.28s WALL (    1933 calls)

     General routines
     calbec       :   2898.62s CPU   2908.94s WALL (    1933 calls)
     fft          :      0.24s CPU      0.24s WALL (      11 calls)
     fftw         :   4038.50s CPU   4041.02s WALL (  272936 calls)
     davcio       :      0.05s CPU      3.64s WALL (     122 calls)

     Parallel routines

     PWSCF        :     4h36m CPU       36h 4m WALL

      37h

   This run was terminated on:   9:14: 0  25Aug2020            

=------------------------------------------------------------------------------=
   JOB DONE.
=------------------------------------------------------------------------------=
