
     Program PWSCF v.6.8 starts on  8Aug2021 at 15:41:13 

     This program is part of the open-source Quantum ESPRESSO suite
     for quantum simulation of materials; please cite
         "P. Giannozzi et al., J. Phys.:Condens. Matter 21 395502 (2009);
         "P. Giannozzi et al., J. Phys.:Condens. Matter 29 465901 (2017);
         "P. Giannozzi et al., J. Chem. Phys. 152 154105 (2020);
          URL http://www.quantum-espresso.org", 
     in publications or presentations arising from this work. More details at
     http://www.quantum-espresso.org/quote

     Serial version
     1461 MiB available memory on the printing compute node when the environment starts

     Waiting for input...
     Reading input from standard input

     Current dimensions of program PWSCF are:
     Max number of different atomic species (ntypx) = 10
     Max number of k-points (npk) =  40000
     Max angular momentum in pseudopotentials (lmaxx) =  4

     IMPORTANT: XC functional enforced from input :
     Exchange-correlation= PBE
                           (   1   4   3   4   0   0   0)
     Any further DFT definition will be discarded
     Please, verify this is what you really want


     --------------------------------------------
     DFT-D3 Dispersion Correction (3-body terms):
     --------------------------------------------
       Reference C6 values for interpolation: 

         atom   Coordination number   C6
         C          0.000            98.23
         C          0.987            86.49
         C          1.998            58.72
         C          2.999            51.56
         C          3.984            36.41
         Si         0.000           635.71
         Si         0.951           540.53
         Si         1.944           466.25
         Si         2.941           443.01
         Si         3.868           299.55
         Ge         0.000           727.09
         Ge         0.943           633.70
         Ge         1.945           573.31
         Ge         2.919           459.90
         Ge         3.897           360.58

       Values used:

         atom   Coordination number  R0_AB[au]  C6      C8
         C          3.008            2.750     51.31   1484.06
         Ge         3.944            3.649    361.94  33335.89
         C          3.008            2.750     51.31   1484.06
         Ge         3.944            3.649    361.94  33335.91
         C          3.008            2.750     51.31   1484.06
         Ge         3.944            3.649    361.94  33335.91
         C          3.008            2.750     51.31   1484.06
         Ge         3.944            3.649    361.94  33335.93
         C          2.989            2.750     51.38   1486.06
         Si         3.511            3.583    340.40  24347.62
         C          2.989            2.750     51.38   1486.07
         Si         3.511            3.583    340.39  24347.08
         C          2.989            2.750     51.38   1486.07
         Si         3.511            3.583    340.39  24347.08
         C          2.989            2.750     51.38   1486.07
         Si         3.511            3.583    340.38  24346.54

         Molecular C6 ( Ry / a.u.^6 ) =     42654.77


     G-vector sticks info
     --------------------
     sticks:   dense  smooth     PW     G-vecs:    dense   smooth      PW
     Sum        2077    1663    463               294585   210977   30779

     Using Slab Decomposition



     bravais-lattice index     =            4
     lattice parameter (alat)  =      12.2794  a.u.
     unit-cell volume          =    6169.1688 (a.u.)^3
     number of atoms/cell      =           16
     number of atomic types    =            3
     number of electrons       =        64.00
     number of Kohn-Sham states=           38
     kinetic-energy cutoff     =      40.0000  Ry
     charge density cutoff     =     200.0000  Ry
     scf convergence threshold =      1.0E-06
     mixing beta               =       0.7000
     number of iterations used =            8  plain     mixing
     Exchange-correlation= PBE
                           (   1   4   3   4   0   0   0)

     celldm(1)=  12.279440  celldm(2)=   0.000000  celldm(3)=   3.847338
     celldm(4)=   0.000000  celldm(5)=   0.000000  celldm(6)=   0.000000

     crystal axes: (cart. coord. in units of alat)
               a(1) = (   1.000000   0.000000   0.000000 )  
               a(2) = (  -0.500000   0.866025   0.000000 )  
               a(3) = (   0.000000   0.000000   3.847338 )  

     reciprocal axes: (cart. coord. in units 2 pi/alat)
               b(1) = (  1.000000  0.577350 -0.000000 )  
               b(2) = (  0.000000  1.154701  0.000000 )  
               b(3) = (  0.000000 -0.000000  0.259920 )  


     PseudoPot. # 1 for C  read from file:
     ./pseudo/C.pbe-n-rrkjus_psl.1.0.0.UPF
     MD5 check sum: 1fdd950c42eb37d8afe3dd2f8d12311e
     Pseudo is Ultrasoft + core correction, Zval =  4.0
     Generated using &quot;atomic&quot; code by A. Dal Corso  v.6.3MaX
     Using radial grid of 1073 points,  4 beta functions with: 
                l(1) =   0
                l(2) =   0
                l(3) =   1
                l(4) =   1
     Q(r) pseudized with 0 coefficients 


     PseudoPot. # 2 for Ge read from file:
     ./pseudo/Ge.pbe-n-kjpaw_psl.1.0.0.UPF
     MD5 check sum: 86cd6a1ce4ead6fa7a4673d64b86017a
     Pseudo is Projector augmented-wave + core cor, Zval =  4.0
     Generated using &quot;atomic&quot; code by A. Dal Corso  v.6.3
     Shape of augmentation charge: PSQ
     Using radial grid of 1207 points,  4 beta functions with: 
                l(1) =   0
                l(2) =   0
                l(3) =   1
                l(4) =   1
     Q(r) pseudized with 0 coefficients 


     PseudoPot. # 3 for Si read from file:
     ./pseudo/Si.pbe-n-rrkjus_psl.1.0.0.UPF
     MD5 check sum: fa25574f73a70a4139f2adfbefec430c
     Pseudo is Ultrasoft + core correction, Zval =  4.0
     Generated using &quot;atomic&quot; code by A. Dal Corso  v.6.3
     Using radial grid of 1141 points,  6 beta functions with: 
                l(1) =   0
                l(2) =   0
                l(3) =   1
                l(4) =   1
                l(5) =   2
                l(6) =   2
     Q(r) pseudized with 0 coefficients 


     atomic species   valence    mass     pseudopotential
        C              4.00    12.01070     C ( 1.00)
        Ge             4.00    72.64000     Ge( 1.00)
        Si             4.00    28.08550     Si( 1.00)

     No symmetry found


                                    s                        frac. trans.

      isym =  1     identity                                     

 cryst.   s( 1) = (     1          0          0      )
                  (     0          1          0      )
                  (     0          0          1      )

 cart.    s( 1) = (  1.0000000  0.0000000  0.0000000 )
                  (  0.0000000  1.0000000  0.0000000 )
                  (  0.0000000  0.0000000  1.0000000 )


     point group C_1 (1)    
     there are  1 classes
     the character table:

       E    
A      1.00

     the symmetry operations in each class and the name of the first element:

     E        1
          identity                                               

   Cartesian axes

     site n.     atom                  positions (alat units)
         1           C   tau(   1) = (  -0.0000001   0.2886883   2.2136276  )
         2           Ge  tau(   2) = (  -0.0000001  -0.0000000   2.2136276  )
         3           C   tau(   3) = (  -0.2500115   0.7217207   2.2136276  )
         4           Ge  tau(   4) = (  -0.2500115   0.4330324   2.2136276  )
         5           C   tau(   5) = (   0.5000227   0.2886883   2.2136276  )
         6           Ge  tau(   6) = (   0.5000227  -0.0000000   2.2136276  )
         7           C   tau(   7) = (   0.2500113   0.7217207   2.2136276  )
         8           Ge  tau(   8) = (   0.2500113   0.4330324   2.2136276  )
         9           C   tau(   9) = (   0.0000000   0.0000000   1.5389351  )
        10           Si  tau(  10) = (   0.0000000   0.2886883   1.5389351  )
        11           C   tau(  11) = (  -0.2500114   0.4330324   1.5389351  )
        12           Si  tau(  12) = (  -0.2500114   0.7217207   1.5389351  )
        13           C   tau(  13) = (   0.5000228   0.0000000   1.5389351  )
        14           Si  tau(  14) = (   0.5000228   0.2886883   1.5389351  )
        15           C   tau(  15) = (   0.2500114   0.4330324   1.5389351  )
        16           Si  tau(  16) = (   0.2500114   0.7217207   1.5389351  )

   Crystallographic axes

     site n.     atom                  positions (cryst. coord.)
         1           C   tau(   1) = (  0.1666742  0.3333485  0.5753661  )
         2           Ge  tau(   2) = ( -0.0000001 -0.0000000  0.5753661  )
         3           C   tau(   3) = (  0.1666742  0.8333713  0.5753661  )
         4           Ge  tau(   4) = ( -0.0000001  0.5000228  0.5753661  )
         5           C   tau(   5) = (  0.6666969  0.3333485  0.5753661  )
         6           Ge  tau(   6) = (  0.5000227 -0.0000000  0.5753661  )
         7           C   tau(   7) = (  0.6666969  0.8333713  0.5753661  )
         8           Ge  tau(   8) = (  0.5000227  0.5000228  0.5753661  )
         9           C   tau(   9) = (  0.0000000  0.0000000  0.4000000  )
        10           Si  tau(  10) = (  0.1666743  0.3333485  0.4000000  )
        11           C   tau(  11) = (  0.0000000  0.5000228  0.4000000  )
        12           Si  tau(  12) = (  0.1666743  0.8333713  0.4000000  )
        13           C   tau(  13) = (  0.5000228  0.0000000  0.4000000  )
        14           Si  tau(  14) = (  0.6666970  0.3333485  0.4000000  )
        15           C   tau(  15) = (  0.5000228  0.5000228  0.4000000  )
        16           Si  tau(  16) = (  0.6666970  0.8333713  0.4000000  )

     number of k points=    20  Marzari-Vanderbilt smearing, width (Ry)=  0.0500
                       cart. coord. in units 2pi/alat
        k(    1) = (   0.0000000   0.0000000   0.0000000), wk =   0.0555556
        k(    2) = (   0.0000000   0.1924501   0.0000000), wk =   0.1111111
        k(    3) = (   0.0000000   0.3849002   0.0000000), wk =   0.1111111
        k(    4) = (   0.0000000  -0.5773503   0.0000000), wk =   0.0555556
        k(    5) = (   0.1666667   0.2886751   0.0000000), wk =   0.1111111
        k(    6) = (   0.1666667   0.4811252   0.0000000), wk =   0.1111111
        k(    7) = (   0.3333333   0.5773503   0.0000000), wk =   0.1111111
        k(    8) = (  -0.1666667   0.0962250   0.0000000), wk =   0.1111111
        k(    9) = (   0.1666667   0.0962250   0.0000000), wk =   0.1111111
        k(   10) = (  -0.3333333   0.1924501   0.0000000), wk =   0.1111111
        k(   11) = (   0.3333333   0.1924501   0.0000000), wk =   0.1111111
        k(   12) = (   0.5000000  -0.2886751   0.0000000), wk =   0.0555556
        k(   13) = (  -0.5000000  -0.2886751   0.0000000), wk =   0.0555556
        k(   14) = (  -0.1666667   0.2886751   0.0000000), wk =   0.1111111
        k(   15) = (   0.3333333   0.0000000   0.0000000), wk =   0.1111111
        k(   16) = (  -0.1666667   0.4811252   0.0000000), wk =   0.1111111
        k(   17) = (  -0.3333333   0.3849002   0.0000000), wk =   0.1111111
        k(   18) = (   0.5000000   0.0962250   0.0000000), wk =   0.1111111
        k(   19) = (  -0.3333333  -0.3849002   0.0000000), wk =   0.1111111
        k(   20) = (   0.5000000  -0.0962250   0.0000000), wk =   0.1111111

                       cryst. coord.
        k(    1) = (   0.0000000   0.0000000   0.0000000), wk =   0.0555556
        k(    2) = (   0.0000000   0.1666667   0.0000000), wk =   0.1111111
        k(    3) = (   0.0000000   0.3333333   0.0000000), wk =   0.1111111
        k(    4) = (   0.0000000  -0.5000000   0.0000000), wk =   0.0555556
        k(    5) = (   0.1666667   0.1666667   0.0000000), wk =   0.1111111
        k(    6) = (   0.1666667   0.3333333   0.0000000), wk =   0.1111111
        k(    7) = (   0.3333333   0.3333333   0.0000000), wk =   0.1111111
        k(    8) = (  -0.1666667   0.1666667   0.0000000), wk =   0.1111111
        k(    9) = (   0.1666667   0.0000000   0.0000000), wk =   0.1111111
        k(   10) = (  -0.3333333   0.3333333   0.0000000), wk =   0.1111111
        k(   11) = (   0.3333333   0.0000000   0.0000000), wk =   0.1111111
        k(   12) = (   0.5000000  -0.5000000   0.0000000), wk =   0.0555556
        k(   13) = (  -0.5000000   0.0000000   0.0000000), wk =   0.0555556
        k(   14) = (  -0.1666667   0.3333333   0.0000000), wk =   0.1111111
        k(   15) = (   0.3333333  -0.1666667   0.0000000), wk =   0.1111111
        k(   16) = (  -0.1666667   0.5000000   0.0000000), wk =   0.1111111
        k(   17) = (  -0.3333333   0.5000000   0.0000000), wk =   0.1111111
        k(   18) = (   0.5000000  -0.1666667   0.0000000), wk =   0.1111111
        k(   19) = (  -0.3333333  -0.1666667   0.0000000), wk =   0.1111111
        k(   20) = (   0.5000000  -0.3333333   0.0000000), wk =   0.1111111

     Dense  grid:   294585 G-vectors     FFT dimensions: (  60,  60, 216)

     Smooth grid:   210977 G-vectors     FFT dimensions: (  50,  50, 192)

     Dynamical RAM for                 wfc:      15.28 MB

     Dynamical RAM for     wfc (w. buffer):     320.91 MB

     Dynamical RAM for           str. fact:      13.49 MB

     Dynamical RAM for           local pot:       0.00 MB

     Dynamical RAM for          nlocal pot:      67.56 MB

     Dynamical RAM for                qrad:       3.41 MB

     Dynamical RAM for          rho,v,vnew:      31.28 MB

     Dynamical RAM for               rhoin:      10.43 MB

     Dynamical RAM for            rho*nmix:      71.92 MB

     Dynamical RAM for           G-vectors:      18.47 MB

     Dynamical RAM for          h,s,v(r/c):       0.26 MB

     Dynamical RAM for          <psi|beta>:       0.10 MB

     Dynamical RAM for                 psi:      30.56 MB

     Dynamical RAM for                hpsi:      30.56 MB

     Dynamical RAM for                spsi:      30.56 MB

     Dynamical RAM for      wfcinit/wfcrot:      51.57 MB

     Dynamical RAM for           addusdens:     872.03 MB

     Estimated static dynamical RAM per process >     513.18 MB

     Estimated max dynamical RAM per process >       1.42 GB

     Check: negative core charge=   -0.000010

     Initial potential from superposition of free atoms

     starting charge   63.99436, renormalised to   64.00000

     negative rho (up, down):  4.344E-04 0.000E+00
     Starting wfcs are   64 randomized atomic wfcs

     total cpu time spent up to now is       74.0 secs

     Self-consistent Calculation

     iteration #  1     ecut=    40.00 Ry     beta= 0.70
     Davidson diagonalization with overlap

---- Real-time Memory Report at c_bands before calling an iterative solver
           963 MiB given to the printing process from OS
             0 MiB allocation reported by mallinfo(arena+hblkhd)
          1097 MiB available memory on the node where the printing process lives
------------------
     ethr =  1.00E-02,  avg # of iterations =  2.3

     negative rho (up, down):  7.471E-04 0.000E+00

     total cpu time spent up to now is      225.7 secs

     WARNING: integrated charge=    64.00008983, expected=    64.00000000

     total energy              =    -798.86198566 Ry
     estimated scf accuracy    <       4.56620067 Ry

     iteration #  2     ecut=    40.00 Ry     beta= 0.70
     Davidson diagonalization with overlap

---- Real-time Memory Report at c_bands before calling an iterative solver
          1454 MiB given to the printing process from OS
             0 MiB allocation reported by mallinfo(arena+hblkhd)
          1112 MiB available memory on the node where the printing process lives
------------------
     ethr =  7.13E-03,  avg # of iterations =  3.3

     negative rho (up, down):  8.723E-04 0.000E+00

     total cpu time spent up to now is      393.6 secs

     WARNING: integrated charge=    64.00005796, expected=    64.00000000

     total energy              =    -800.15298013 Ry
     estimated scf accuracy    <       4.32650823 Ry

     iteration #  3     ecut=    40.00 Ry     beta= 0.70
     Davidson diagonalization with overlap

---- Real-time Memory Report at c_bands before calling an iterative solver
          1460 MiB given to the printing process from OS
             0 MiB allocation reported by mallinfo(arena+hblkhd)
          1530 MiB available memory on the node where the printing process lives
------------------
     ethr =  6.76E-03,  avg # of iterations =  2.0
     Minimization algorithm failed to find Fermi energy: reverting to bisection
     Possible cause: smearing is larger than the electronic band-gap.

     negative rho (up, down):  5.995E-04 0.000E+00

     total cpu time spent up to now is      505.9 secs

     WARNING: integrated charge=    64.00001071, expected=    64.00000000

     total energy              =    -800.76623369 Ry
     estimated scf accuracy    <       0.06431225 Ry

     iteration #  4     ecut=    40.00 Ry     beta= 0.70
     Davidson diagonalization with overlap

---- Real-time Memory Report at c_bands before calling an iterative solver
          1467 MiB given to the printing process from OS
             0 MiB allocation reported by mallinfo(arena+hblkhd)
          1570 MiB available memory on the node where the printing process lives
------------------
     ethr =  1.00E-04,  avg # of iterations = 10.5
     Minimization algorithm failed to find Fermi energy: reverting to bisection
     Possible cause: smearing is larger than the electronic band-gap.

     negative rho (up, down):  6.845E-04 0.000E+00

     total cpu time spent up to now is      715.3 secs

     total energy              =    -800.82617911 Ry
     estimated scf accuracy    <       0.09057125 Ry

     iteration #  5     ecut=    40.00 Ry     beta= 0.70
     Davidson diagonalization with overlap

---- Real-time Memory Report at c_bands before calling an iterative solver
          1473 MiB given to the printing process from OS
             0 MiB allocation reported by mallinfo(arena+hblkhd)
          1305 MiB available memory on the node where the printing process lives
------------------
     ethr =  1.00E-04,  avg # of iterations =  8.2
     Minimization algorithm failed to find Fermi energy: reverting to bisection
     Possible cause: smearing is larger than the electronic band-gap.

     negative rho (up, down):  7.687E-04 0.000E+00

     total cpu time spent up to now is      850.7 secs

     total energy              =    -800.82374456 Ry
     estimated scf accuracy    <       0.05009144 Ry

     iteration #  6     ecut=    40.00 Ry     beta= 0.70
     Davidson diagonalization with overlap

---- Real-time Memory Report at c_bands before calling an iterative solver
          1479 MiB given to the printing process from OS
             0 MiB allocation reported by mallinfo(arena+hblkhd)
          1201 MiB available memory on the node where the printing process lives
------------------
     ethr =  7.83E-05,  avg # of iterations =  3.8
     Minimization algorithm failed to find Fermi energy: reverting to bisection
     Possible cause: smearing is larger than the electronic band-gap.

     negative rho (up, down):  7.914E-04 0.000E+00

     total cpu time spent up to now is      968.6 secs

     total energy              =    -800.82712153 Ry
     estimated scf accuracy    <       0.00985995 Ry

     iteration #  7     ecut=    40.00 Ry     beta= 0.70
     Davidson diagonalization with overlap

---- Real-time Memory Report at c_bands before calling an iterative solver
          1486 MiB given to the printing process from OS
             0 MiB allocation reported by mallinfo(arena+hblkhd)
          3457 MiB available memory on the node where the printing process lives
------------------
     ethr =  1.54E-05,  avg # of iterations =  8.7
     Minimization algorithm failed to find Fermi energy: reverting to bisection
     Possible cause: smearing is larger than the electronic band-gap.

     negative rho (up, down):  8.163E-04 0.000E+00

     total cpu time spent up to now is     1085.4 secs

     total energy              =    -800.82935486 Ry
     estimated scf accuracy    <       0.00014834 Ry

     iteration #  8     ecut=    40.00 Ry     beta= 0.70
     Davidson diagonalization with overlap

---- Real-time Memory Report at c_bands before calling an iterative solver
          1494 MiB given to the printing process from OS
             0 MiB allocation reported by mallinfo(arena+hblkhd)
          3520 MiB available memory on the node where the printing process lives
------------------
     ethr =  2.32E-07,  avg # of iterations =  7.1
     Minimization algorithm failed to find Fermi energy: reverting to bisection
     Possible cause: smearing is larger than the electronic band-gap.

     negative rho (up, down):  8.098E-04 0.000E+00

     total cpu time spent up to now is     1254.9 secs

     total energy              =    -800.82938295 Ry
     estimated scf accuracy    <       0.00045047 Ry

     iteration #  9     ecut=    40.00 Ry     beta= 0.70
     Davidson diagonalization with overlap

---- Real-time Memory Report at c_bands before calling an iterative solver
          1500 MiB given to the printing process from OS
             0 MiB allocation reported by mallinfo(arena+hblkhd)
          3093 MiB available memory on the node where the printing process lives
------------------
     ethr =  2.32E-07,  avg # of iterations =  2.4
     Minimization algorithm failed to find Fermi energy: reverting to bisection
     Possible cause: smearing is larger than the electronic band-gap.

     negative rho (up, down):  8.059E-04 0.000E+00

     total cpu time spent up to now is     1385.3 secs

     total energy              =    -800.82935928 Ry
     estimated scf accuracy    <       0.00013623 Ry

     iteration # 10     ecut=    40.00 Ry     beta= 0.70
     Davidson diagonalization with overlap

---- Real-time Memory Report at c_bands before calling an iterative solver
          1507 MiB given to the printing process from OS
             0 MiB allocation reported by mallinfo(arena+hblkhd)
          3158 MiB available memory on the node where the printing process lives
------------------
     ethr =  2.13E-07,  avg # of iterations =  2.0
     Minimization algorithm failed to find Fermi energy: reverting to bisection
     Possible cause: smearing is larger than the electronic band-gap.

     negative rho (up, down):  8.070E-04 0.000E+00

     total cpu time spent up to now is     1508.6 secs

     total energy              =    -800.82937205 Ry
     estimated scf accuracy    <       0.00000857 Ry

     iteration # 11     ecut=    40.00 Ry     beta= 0.70
     Davidson diagonalization with overlap

---- Real-time Memory Report at c_bands before calling an iterative solver
          1507 MiB given to the printing process from OS
             0 MiB allocation reported by mallinfo(arena+hblkhd)
          3134 MiB available memory on the node where the printing process lives
------------------
     ethr =  1.34E-08,  avg # of iterations =  4.3
     Minimization algorithm failed to find Fermi energy: reverting to bisection
     Possible cause: smearing is larger than the electronic band-gap.

     negative rho (up, down):  8.094E-04 0.000E+00

     total cpu time spent up to now is     1648.2 secs

     total energy              =    -800.82937634 Ry
     estimated scf accuracy    <       0.00000135 Ry

     iteration # 12     ecut=    40.00 Ry     beta= 0.70
     Davidson diagonalization with overlap

---- Real-time Memory Report at c_bands before calling an iterative solver
          1513 MiB given to the printing process from OS
             0 MiB allocation reported by mallinfo(arena+hblkhd)
          3188 MiB available memory on the node where the printing process lives
------------------
     ethr =  2.11E-09,  avg # of iterations =  2.3
     Minimization algorithm failed to find Fermi energy: reverting to bisection
     Possible cause: smearing is larger than the electronic band-gap.

     negative rho (up, down):  8.104E-04 0.000E+00

     total cpu time spent up to now is     1746.6 secs

     End of self-consistent calculation

          k = 0.0000 0.0000 0.0000 ( 26399 PWs)   bands (ev):

   -16.1665 -15.3914 -13.2146 -13.2139 -13.2135 -12.8161 -12.8155 -12.8149
   -10.7739 -10.7733 -10.7727  -9.9278  -9.9272  -9.9268  -6.0358  -5.4640
    -5.3064  -5.3060  -5.3058  -5.1953  -5.1948  -5.1946  -3.7842  -3.7833
    -3.4156  -3.4147  -3.0860  -3.0855  -3.0854  -2.7739  -2.7735  -2.7733
    -0.1363  -0.1361  -0.1355   0.1337   0.2807   0.2813

     occupation numbers 
     1.0000   1.0000   1.0000   1.0000   1.0000   1.0000   1.0000   1.0000
     1.0000   1.0000   1.0000   1.0000   1.0000   1.0000   1.0000   1.0000
     1.0000   1.0000   1.0000   1.0000   1.0000   1.0000   1.0110   1.0110
     1.0464   1.0465   1.0829   1.0829   1.0829   1.0266   1.0264   1.0264
     0.0000   0.0000   0.0000   0.0000   0.0000   0.0000

          k = 0.0000 0.1925 0.0000 ( 26387 PWs)   bands (ev):

   -16.0576 -15.2893 -13.6894 -13.2847 -13.2840 -13.1780 -12.8618 -12.8610
   -10.5517 -10.5510 -10.1104  -9.7381  -9.7373  -9.4058  -5.9215  -5.7251
    -5.7249  -5.5713  -5.5711  -5.3561  -5.2106  -5.1214  -4.3054  -4.0923
    -3.9100  -3.5910  -3.5242  -3.1404  -3.1402  -3.1326  -2.8075  -2.8073
     0.0316   0.0318   0.4122   0.4180   0.4183   0.4209

     occupation numbers 
     1.0000   1.0000   1.0000   1.0000   1.0000   1.0000   1.0000   1.0000
     1.0000   1.0000   1.0000   1.0000   1.0000   1.0000   1.0000   1.0000
     1.0000   1.0000   1.0000   1.0000   1.0000   1.0000   1.0005   1.0020
     1.0057   1.0255   1.0327   1.0800   1.0800   1.0806   1.0405   1.0404
     0.0000   0.0000   0.0000   0.0000   0.0000   0.0000

          k = 0.0000 0.3849 0.0000 ( 26330 PWs)   bands (ev):

   -15.7332 -14.9868 -14.4911 -13.8586 -13.4063 -13.4055 -12.9453 -12.9445
   -10.0513 -10.0505  -9.2904  -9.2895  -8.7585  -8.2607  -6.5450  -6.5447
    -6.3230  -6.3228  -5.5945  -5.5389  -5.4839  -5.0319  -4.9351  -4.9077
    -4.3085  -4.2215  -4.0172  -3.8406  -3.2379  -3.2376  -2.8733  -2.8730
     0.3970   0.3975   0.7002   0.7007   0.9109   1.0893

     occupation numbers 
     1.0000   1.0000   1.0000   1.0000   1.0000   1.0000   1.0000   1.0000
     1.0000   1.0000   1.0000   1.0000   1.0000   1.0000   1.0000   1.0000
     1.0000   1.0000   1.0000   1.0000   1.0000   1.0000   1.0000   1.0000
     1.0004   1.0008   1.0031   1.0083   1.0703   1.0703   1.0616   1.0615
     0.0000   0.0000   0.0000   0.0000   0.0000   0.0000

          k = 0.0000-0.5774 0.0000 ( 26346 PWs)   bands (ev):

   -15.2029 -15.2020 -14.4983 -14.4974 -13.4598 -13.4590 -12.9836 -12.9828
    -9.7401  -9.7392  -8.9966  -8.9956  -7.1749  -7.1747  -6.9912  -6.9909
    -6.8916  -6.8914  -6.7453  -6.7451  -5.0315  -5.0308  -4.5908  -4.5892
    -4.5160  -4.5154  -4.5104  -4.5088  -3.2820  -3.2816  -2.9049  -2.9046
     0.6052   0.6057   0.8471   0.8476   1.2094   1.2100

     occupation numbers 
     1.0000   1.0000   1.0000   1.0000   1.0000   1.0000   1.0000   1.0000
     1.0000   1.0000   1.0000   1.0000   1.0000   1.0000   1.0000   1.0000
     1.0000   1.0000   1.0000   1.0000   1.0000   1.0000   1.0000   1.0000
     1.0001   1.0001   1.0001   1.0001   1.0647   1.0647   1.0689   1.0689
     0.0000   0.0000   0.0000   0.0000   0.0000   0.0000

          k = 0.1667 0.2887 0.0000 ( 26335 PWs)   bands (ev):

   -15.8409 -15.0870 -14.0151 -14.0147 -13.4458 -13.4458 -12.9417 -12.6070
   -10.6567  -9.7446  -9.4676  -9.4670  -8.8555  -8.8550  -6.6877  -6.4474
    -5.6958  -5.5148  -5.5143  -5.4015  -5.4011  -5.1584  -5.0913  -5.0599
    -4.1877  -3.9651  -3.8346  -3.8344  -3.4054  -3.4052  -2.8048  -2.5337
    -0.0854   0.2305   0.8143   0.9450   0.9454   1.2604

     occupation numbers 
     1.0000   1.0000   1.0000   1.0000   1.0000   1.0000   1.0000   1.0000
     1.0000   1.0000   1.0000   1.0000   1.0000   1.0000   1.0000   1.0000
     1.0000   1.0000   1.0000   1.0000   1.0000   1.0000   1.0000   1.0000
     1.0010   1.0042   1.0085   1.0085   1.0478   1.0478   1.0395   0.8632
     0.0000   0.0000   0.0000   0.0000   0.0000   0.0000

          k = 0.1667 0.4811 0.0000 ( 26358 PWs)   bands (ev):

   -15.4128 -14.7887 -14.6906 -14.1905 -14.1230 -13.5943 -12.7838 -12.4868
   -10.4914  -9.5230  -8.8735  -8.3208  -8.0201  -7.6144  -7.4620  -7.1845
    -6.4850  -6.2942  -6.1114  -5.9466  -5.2474  -5.1113  -5.0759  -4.7195
    -4.6417  -4.6077  -4.5544  -4.1184  -4.0035  -3.5565  -2.6329  -2.3868
    -0.0081   0.2019   1.3116   1.3848   1.5612   1.6173

     occupation numbers 
     1.0000   1.0000   1.0000   1.0000   1.0000   1.0000   1.0000   1.0000
     1.0000   1.0000   1.0000   1.0000   1.0000   1.0000   1.0000   1.0000
     1.0000   1.0000   1.0000   1.0000   1.0000   1.0000   1.0000   1.0000
     1.0000   1.0000   1.0001   1.0017   1.0034   1.0291   0.9439   0.7173
     0.0000   0.0000   0.0000   0.0000   0.0000   0.0000

          k = 0.3333 0.5774 0.0000 ( 26334 PWs)   bands (ev):

   -14.8902 -14.8894 -14.8891 -14.2142 -14.2135 -14.2129 -12.4687 -12.2891
   -10.6959  -9.5804  -7.8346  -7.6234  -7.6227  -7.6223  -7.5535  -7.2607
    -7.2601  -7.2598  -5.3989  -5.3977  -5.3976  -5.3355  -5.3345  -5.3342
    -4.7100  -4.7095  -4.7092  -4.2138  -4.2133  -4.2130  -2.2921  -2.2175
    -0.1295  -0.0754   1.9290   1.9292   1.9293   2.2866

     occupation numbers 
     1.0000   1.0000   1.0000   1.0000   1.0000   1.0000   1.0000   1.0000
     1.0000   1.0000   1.0000   1.0000   1.0000   1.0000   1.0000   1.0000
     1.0000   1.0000   1.0000   1.0000   1.0000   1.0000   1.0000   1.0000
     1.0000   1.0000   1.0000   1.0009   1.0009   1.0009   0.6138   0.5314
     0.0000   0.0000   0.0000   0.0000   0.0000   0.0000

          k =-0.1667 0.0962 0.0000 ( 26387 PWs)   bands (ev):

   -16.0576 -15.2893 -13.6892 -13.2847 -13.2843 -13.1778 -12.8615 -12.8614
   -10.5513 -10.5507 -10.1110  -9.7377  -9.7372  -9.4062  -5.9215  -5.7254
    -5.7250  -5.5716  -5.5712  -5.3561  -5.2103  -5.1210  -4.3059  -4.0929
    -3.9094  -3.5904  -3.5240  -3.1406  -3.1403  -3.1325  -2.8076  -2.8074
     0.0317   0.0321   0.4118   0.4182   0.4187   0.4209

     occupation numbers 
     1.0000   1.0000   1.0000   1.0000   1.0000   1.0000   1.0000   1.0000
     1.0000   1.0000   1.0000   1.0000   1.0000   1.0000   1.0000   1.0000
     1.0000   1.0000   1.0000   1.0000   1.0000   1.0000   1.0005   1.0019
     1.0057   1.0256   1.0327   1.0800   1.0800   1.0806   1.0406   1.0405
     0.0000   0.0000   0.0000   0.0000   0.0000   0.0000

          k = 0.1667 0.0962 0.0000 ( 26387 PWs)   bands (ev):

   -16.0576 -15.2893 -13.6892 -13.2848 -13.2842 -13.1778 -12.8619 -12.8610
   -10.5514 -10.5506 -10.1110  -9.7378  -9.7371  -9.4062  -5.9215  -5.7254
    -5.7250  -5.5717  -5.5711  -5.3561  -5.2103  -5.1210  -4.3059  -4.0929
    -3.9094  -3.5904  -3.5240  -3.1407  -3.1402  -3.1325  -2.8078  -2.8072
     0.0316   0.0323   0.4118   0.4181   0.4195   0.4209

     occupation numbers 
     1.0000   1.0000   1.0000   1.0000   1.0000   1.0000   1.0000   1.0000
     1.0000   1.0000   1.0000   1.0000   1.0000   1.0000   1.0000   1.0000
     1.0000   1.0000   1.0000   1.0000   1.0000   1.0000   1.0005   1.0019
     1.0057   1.0256   1.0327   1.0800   1.0800   1.0806   1.0406   1.0404
     0.0000   0.0000   0.0000   0.0000   0.0000   0.0000

          k =-0.3333 0.1925 0.0000 ( 26330 PWs)   bands (ev):

   -15.7332 -14.9868 -14.4910 -13.8585 -13.4061 -13.4058 -12.9450 -12.9449
   -10.0507 -10.0503  -9.2898  -9.2895  -8.7589  -8.2611  -6.5453  -6.5450
    -6.3233  -6.3230  -5.5945  -5.5394  -5.4844  -5.0319  -4.9347  -4.9073
    -4.3084  -4.2210  -4.0166  -3.8405  -3.2380  -3.2378  -2.8733  -2.8731
     0.3974   0.3976   0.7006   0.7009   0.9110   1.0892

     occupation numbers 
     1.0000   1.0000   1.0000   1.0000   1.0000   1.0000   1.0000   1.0000
     1.0000   1.0000   1.0000   1.0000   1.0000   1.0000   1.0000   1.0000
     1.0000   1.0000   1.0000   1.0000   1.0000   1.0000   1.0000   1.0000
     1.0004   1.0008   1.0031   1.0083   1.0703   1.0703   1.0616   1.0615
     0.0000   0.0000   0.0000   0.0000   0.0000   0.0000

          k = 0.3333 0.1925 0.0000 ( 26330 PWs)   bands (ev):

   -15.7332 -14.9868 -14.4910 -13.8585 -13.4062 -13.4057 -12.9454 -12.9446
   -10.0507 -10.0502  -9.2899  -9.2894  -8.7589  -8.2611  -6.5453  -6.5450
    -6.3234  -6.3230  -5.5945  -5.5394  -5.4844  -5.0319  -4.9347  -4.9073
    -4.3084  -4.2210  -4.0166  -3.8405  -3.2381  -3.2377  -2.8735  -2.8730
     0.3972   0.3978   0.7004   0.7011   0.9109   1.0891

     occupation numbers 
     1.0000   1.0000   1.0000   1.0000   1.0000   1.0000   1.0000   1.0000
     1.0000   1.0000   1.0000   1.0000   1.0000   1.0000   1.0000   1.0000
     1.0000   1.0000   1.0000   1.0000   1.0000   1.0000   1.0000   1.0000
     1.0004   1.0008   1.0031   1.0083   1.0702   1.0703   1.0616   1.0615
     0.0000   0.0000   0.0000   0.0000   0.0000   0.0000

          k = 0.5000-0.2887 0.0000 ( 26346 PWs)   bands (ev):

   -15.2026 -15.2023 -14.4979 -14.4979 -13.4597 -13.4594 -12.9833 -12.9833
    -9.7392  -9.7391  -8.9957  -8.9957  -7.1753  -7.1752  -6.9915  -6.9914
    -6.8919  -6.8919  -6.7455  -6.7455  -5.0312  -5.0310  -4.5895  -4.5895
    -4.5157  -4.5156  -4.5094  -4.5089  -3.2820  -3.2819  -2.9049  -2.9048
     0.6058   0.6058   0.8477   0.8477   1.2098   1.2100

     occupation numbers 
     1.0000   1.0000   1.0000   1.0000   1.0000   1.0000   1.0000   1.0000
     1.0000   1.0000   1.0000   1.0000   1.0000   1.0000   1.0000   1.0000
     1.0000   1.0000   1.0000   1.0000   1.0000   1.0000   1.0000   1.0000
     1.0001   1.0001   1.0001   1.0001   1.0647   1.0647   1.0689   1.0689
     0.0000   0.0000   0.0000   0.0000   0.0000   0.0000

          k =-0.5000-0.2887 0.0000 ( 26346 PWs)   bands (ev):

   -15.2028 -15.2021 -14.4983 -14.4974 -13.4598 -13.4593 -12.9837 -12.9829
    -9.7393  -9.7391  -8.9959  -8.9955  -7.1756  -7.1749  -6.9915  -6.9914
    -6.8923  -6.8914  -6.7457  -6.7454  -5.0313  -5.0309  -4.5899  -4.5892
    -4.5159  -4.5154  -4.5094  -4.5089  -3.2821  -3.2817  -2.9051  -2.9046
     0.6055   0.6061   0.8474   0.8480   1.2097   1.2099

     occupation numbers 
     1.0000   1.0000   1.0000   1.0000   1.0000   1.0000   1.0000   1.0000
     1.0000   1.0000   1.0000   1.0000   1.0000   1.0000   1.0000   1.0000
     1.0000   1.0000   1.0000   1.0000   1.0000   1.0000   1.0000   1.0000
     1.0001   1.0001   1.0001   1.0001   1.0646   1.0647   1.0690   1.0689
     0.0000   0.0000   0.0000   0.0000   0.0000   0.0000

          k =-0.1667 0.2887 0.0000 ( 26335 PWs)   bands (ev):

   -15.8409 -15.0870 -14.0152 -14.0145 -13.4462 -13.4454 -12.9417 -12.6070
   -10.6567  -9.7446  -9.4677  -9.4669  -8.8556  -8.8549  -6.6877  -6.4474
    -5.6958  -5.5148  -5.5142  -5.4017  -5.4010  -5.1584  -5.0913  -5.0599
    -4.1877  -3.9651  -3.8347  -3.8342  -3.4056  -3.4050  -2.8048  -2.5337
    -0.0854   0.2305   0.8143   0.9452   0.9458   1.2609

     occupation numbers 
     1.0000   1.0000   1.0000   1.0000   1.0000   1.0000   1.0000   1.0000
     1.0000   1.0000   1.0000   1.0000   1.0000   1.0000   1.0000   1.0000
     1.0000   1.0000   1.0000   1.0000   1.0000   1.0000   1.0000   1.0000
     1.0010   1.0042   1.0085   1.0085   1.0477   1.0478   1.0395   0.8632
     0.0000   0.0000   0.0000   0.0000   0.0000   0.0000

          k = 0.3333 0.0000 0.0000 ( 26335 PWs)   bands (ev):

   -15.8409 -15.0870 -14.0153 -14.0144 -13.4462 -13.4453 -12.9420 -12.6071
   -10.6560  -9.7442  -9.4678  -9.4671  -8.8558  -8.8550  -6.6881  -6.4477
    -5.6958  -5.5147  -5.5142  -5.4014  -5.4010  -5.1585  -5.0918  -5.0605
    -4.1871  -3.9644  -3.8347  -3.8342  -3.4056  -3.4050  -2.8051  -2.5339
    -0.0851   0.2310   0.8143   0.9450   0.9462   1.2611

     occupation numbers 
     1.0000   1.0000   1.0000   1.0000   1.0000   1.0000   1.0000   1.0000
     1.0000   1.0000   1.0000   1.0000   1.0000   1.0000   1.0000   1.0000
     1.0000   1.0000   1.0000   1.0000   1.0000   1.0000   1.0000   1.0000
     1.0011   1.0042   1.0085   1.0085   1.0477   1.0478   1.0396   0.8634
     0.0000   0.0000   0.0000   0.0000   0.0000   0.0000

          k =-0.1667 0.4811 0.0000 ( 26358 PWs)   bands (ev):

   -15.4128 -14.7887 -14.6906 -14.1905 -14.1230 -13.5943 -12.7838 -12.4868
   -10.4914  -9.5230  -8.8735  -8.3208  -8.0201  -7.6144  -7.4620  -7.1845
    -6.4850  -6.2942  -6.1114  -5.9466  -5.2474  -5.1113  -5.0759  -4.7195
    -4.6417  -4.6077  -4.5544  -4.1184  -4.0035  -3.5565  -2.6329  -2.3868
    -0.0081   0.2019   1.3115   1.3848   1.5614   1.6174

     occupation numbers 
     1.0000   1.0000   1.0000   1.0000   1.0000   1.0000   1.0000   1.0000
     1.0000   1.0000   1.0000   1.0000   1.0000   1.0000   1.0000   1.0000
     1.0000   1.0000   1.0000   1.0000   1.0000   1.0000   1.0000   1.0000
     1.0000   1.0000   1.0001   1.0017   1.0034   1.0291   0.9439   0.7173
     0.0000   0.0000   0.0000   0.0000   0.0000   0.0000

          k =-0.3333 0.3849 0.0000 ( 26358 PWs)   bands (ev):

   -15.4128 -14.7887 -14.6906 -14.1905 -14.1230 -13.5944 -12.7839 -12.4868
   -10.4912  -9.5228  -8.8729  -8.3203  -8.0206  -7.6149  -7.4621  -7.1847
    -6.4853  -6.2944  -6.1119  -5.9470  -5.2474  -5.1107  -5.0754  -4.7195
    -4.6415  -4.6076  -4.5541  -4.1183  -4.0036  -3.5566  -2.6329  -2.3868
    -0.0080   0.2020   1.3116   1.3851   1.5615   1.6177

     occupation numbers 
     1.0000   1.0000   1.0000   1.0000   1.0000   1.0000   1.0000   1.0000
     1.0000   1.0000   1.0000   1.0000   1.0000   1.0000   1.0000   1.0000
     1.0000   1.0000   1.0000   1.0000   1.0000   1.0000   1.0000   1.0000
     1.0000   1.0000   1.0001   1.0017   1.0034   1.0291   0.9440   0.7174
     0.0000   0.0000   0.0000   0.0000   0.0000   0.0000

          k = 0.5000 0.0962 0.0000 ( 26358 PWs)   bands (ev):

   -15.4128 -14.7887 -14.6906 -14.1905 -14.1230 -13.5944 -12.7840 -12.4869
   -10.4909  -9.5226  -8.8731  -8.3205  -8.0204  -7.6147  -7.4623  -7.1848
    -6.4857  -6.2947  -6.1117  -5.9469  -5.2474  -5.1110  -5.0756  -4.7195
    -4.6411  -4.6076  -4.5537  -4.1184  -4.0036  -3.5566  -2.6331  -2.3869
    -0.0079   0.2023   1.3116   1.3850   1.5616   1.6176

     occupation numbers 
     1.0000   1.0000   1.0000   1.0000   1.0000   1.0000   1.0000   1.0000
     1.0000   1.0000   1.0000   1.0000   1.0000   1.0000   1.0000   1.0000
     1.0000   1.0000   1.0000   1.0000   1.0000   1.0000   1.0000   1.0000
     1.0000   1.0000   1.0001   1.0017   1.0034   1.0291   0.9441   0.7175
     0.0000   0.0000   0.0000   0.0000   0.0000   0.0000

          k =-0.3333-0.3849 0.0000 ( 26358 PWs)   bands (ev):

   -15.4128 -14.7887 -14.6906 -14.1905 -14.1230 -13.5944 -12.7839 -12.4868
   -10.4912  -9.5228  -8.8729  -8.3203  -8.0206  -7.6149  -7.4621  -7.1847
    -6.4853  -6.2944  -6.1119  -5.9470  -5.2474  -5.1107  -5.0754  -4.7195
    -4.6415  -4.6076  -4.5541  -4.1183  -4.0036  -3.5566  -2.6329  -2.3868
    -0.0080   0.2020   1.3116   1.3851   1.5617   1.6177

     occupation numbers 
     1.0000   1.0000   1.0000   1.0000   1.0000   1.0000   1.0000   1.0000
     1.0000   1.0000   1.0000   1.0000   1.0000   1.0000   1.0000   1.0000
     1.0000   1.0000   1.0000   1.0000   1.0000   1.0000   1.0000   1.0000
     1.0000   1.0000   1.0001   1.0017   1.0034   1.0291   0.9440   0.7174
     0.0000   0.0000   0.0000   0.0000   0.0000   0.0000

          k = 0.5000-0.0962 0.0000 ( 26358 PWs)   bands (ev):

   -15.4128 -14.7887 -14.6906 -14.1905 -14.1230 -13.5944 -12.7840 -12.4869
   -10.4909  -9.5226  -8.8731  -8.3205  -8.0204  -7.6147  -7.4623  -7.1848
    -6.4857  -6.2947  -6.1117  -5.9469  -5.2474  -5.1110  -5.0756  -4.7195
    -4.6411  -4.6076  -4.5537  -4.1184  -4.0036  -3.5566  -2.6331  -2.3869
    -0.0079   0.2023   1.3116   1.3850   1.5616   1.6176

     occupation numbers 
     1.0000   1.0000   1.0000   1.0000   1.0000   1.0000   1.0000   1.0000
     1.0000   1.0000   1.0000   1.0000   1.0000   1.0000   1.0000   1.0000
     1.0000   1.0000   1.0000   1.0000   1.0000   1.0000   1.0000   1.0000
     1.0000   1.0000   1.0001   1.0017   1.0034   1.0291   0.9441   0.7175
     0.0000   0.0000   0.0000   0.0000   0.0000   0.0000

     the Fermi energy is    -2.0940 ev

!    total energy              =    -800.82937577 Ry
     estimated scf accuracy    <       0.00000089 Ry
     smearing contrib. (-TS)   =       0.03895558 Ry
     internal energy E=F+TS    =    -800.86833135 Ry

     The total energy is F=E-TS. E is the sum of the following terms:
     one-electron contribution =   -1509.90031194 Ry
     hartree contribution      =     768.71904580 Ry
     xc contribution           =     -87.15391620 Ry
     ewald contribution        =     638.59884293 Ry
     DFT-D3 Dispersion         =      -0.07498042 Ry
     one-center paw contrib.   =    -611.05701152 Ry
      -> PAW hartree energy AE =      19.48395557 Ry
      -> PAW hartree energy PS =     -19.46613229 Ry
      -> PAW xc energy AE      =    -636.32727275 Ry
      -> PAW xc energy PS      =      25.25243796 Ry
      -> total E_H with PAW    =     768.73686907 Ry
      -> total E_XC with PAW   =    -698.22875099 Ry

     convergence has been achieved in  12 iterations

     Writing output data file ./work/sic_gec3.save/

     init_run     :     71.78s CPU     73.70s WALL (       1 calls)
     electrons    :   1648.16s CPU   1672.70s WALL (       1 calls)

     Called by init_run:
     wfcinit      :     67.97s CPU     69.44s WALL (       1 calls)
     wfcinit:atom :      0.27s CPU      0.47s WALL (      20 calls)
     wfcinit:wfcr :     65.69s CPU     66.78s WALL (      20 calls)
     potinit      :      0.96s CPU      1.02s WALL (       1 calls)
     hinit0       :      1.07s CPU      1.08s WALL (       1 calls)

     Called by electrons:
     c_bands      :   1450.94s CPU   1464.95s WALL (      12 calls)
     sum_band     :    171.03s CPU    177.00s WALL (      12 calls)
     v_of_rho     :      5.13s CPU      5.35s WALL (      13 calls)
     v_h          :      0.34s CPU      0.34s WALL (      13 calls)
     v_xc         :      4.79s CPU      5.01s WALL (      13 calls)
     newd         :     20.04s CPU     24.71s WALL (      13 calls)
     PAW_pot      :      1.54s CPU      1.54s WALL (      13 calls)
     mix_rho      :      0.99s CPU      1.02s WALL (      12 calls)
     energy_dftd3 :      0.09s CPU      0.09s WALL (       1 calls)

     Called by c_bands:
     init_us_2    :     10.01s CPU     10.13s WALL (     500 calls)
     cegterg      :   1423.60s CPU   1437.05s WALL (     240 calls)

     Called by sum_band:
     sum_band:wei :      0.02s CPU      0.03s WALL (      12 calls)
     sum_band:loo :    150.05s CPU    150.80s WALL (      12 calls)
     sum_band:buf :      0.76s CPU      0.77s WALL (     240 calls)
     sum_band:ini :      4.62s CPU      4.64s WALL (     240 calls)
     sum_band:cal :     73.14s CPU     73.36s WALL (     240 calls)
     sum_band:bec :      0.04s CPU      0.04s WALL (     240 calls)
     addusdens    :     20.49s CPU     25.68s WALL (      12 calls)
     addusd:skk   :      0.19s CPU      0.22s WALL (      36 calls)
     addusd:dgemm :      9.66s CPU     13.88s WALL (      36 calls)
     addusd:qvan2 :      9.43s CPU      9.49s WALL (      36 calls)

     Called by *egterg:
     cdiaghg      :      2.64s CPU      2.66s WALL (    1376 calls)
     cegterg:over :    120.90s CPU    121.65s WALL (    1136 calls)
     cegterg:upda :     60.89s CPU     61.26s WALL (    1136 calls)
     cegterg:last :    159.46s CPU    160.49s WALL (     585 calls)
     h_psi        :    886.47s CPU    895.08s WALL (    1396 calls)
     s_psi        :    204.43s CPU    205.59s WALL (    1396 calls)
     g_psi        :      1.99s CPU      2.01s WALL (    1136 calls)

     Called by h_psi:
     h_psi:calbec :    232.16s CPU    233.42s WALL (    1396 calls)
     vloc_psi     :    448.04s CPU    452.97s WALL (    1396 calls)
     add_vuspsi   :    204.17s CPU    205.22s WALL (    1396 calls)

     General routines
     calbec       :    305.30s CPU    306.77s WALL (    1636 calls)
     fft          :      2.99s CPU      3.04s WALL (     167 calls)
     ffts         :      0.28s CPU      0.28s WALL (      25 calls)
     fftw         :    434.13s CPU    438.78s WALL (   62868 calls)
     interpolate  :      0.43s CPU      0.44s WALL (      13 calls)


     PAW routines
     PAW_pot      :      1.54s CPU      1.54s WALL (      13 calls)

     PWSCF        :  28m40.45s CPU  29m 8.26s WALL


   This run was terminated on:  16:10:22   8Aug2021            

=------------------------------------------------------------------------------=
   JOB DONE.
=------------------------------------------------------------------------------=
