
     Program POST-PROC v.6.8 starts on  8Aug2021 at 16:11: 2 

     This program is part of the open-source Quantum ESPRESSO suite
     for quantum simulation of materials; please cite
         "P. Giannozzi et al., J. Phys.:Condens. Matter 21 395502 (2009);
         "P. Giannozzi et al., J. Phys.:Condens. Matter 29 465901 (2017);
         "P. Giannozzi et al., J. Chem. Phys. 152 154105 (2020);
          URL http://www.quantum-espresso.org", 
     in publications or presentations arising from this work. More details at
     http://www.quantum-espresso.org/quote

     Serial version
     3362 MiB available memory on the printing compute node when the environment starts


     Reading xml data from directory:

     ./work/sic_gec3.save/

     IMPORTANT: XC functional enforced from input :
     Exchange-correlation= PBE
                           (   1   4   3   4   0   0   0)
     Any further DFT definition will be discarded
     Please, verify this is what you really want


     G-vector sticks info
     --------------------
     sticks:   dense  smooth     PW     G-vecs:    dense   smooth      PW
     Sum        2077    1663    463               294585   210977   30779

     Using Slab Decomposition


     Check: negative core charge=   -0.000010

     negative rho (up, down):  8.104E-04 0.000E+00

     Calling punch_plot, plot_num =   7

     Plotting k_point =   1  band = 33
     Writing data to file  sic_gec3_CB.charge
     Reading data from file  sic_gec3_CB.charge

     Writing data to be plotted to file sic_gec3_CB.cube
     Plot Type: 3D                     Output format: Gaussian cube

     POST-PROC    :      7.53s CPU      8.64s WALL


   This run was terminated on:  16:11:10   8Aug2021            

=------------------------------------------------------------------------------=
   JOB DONE.
=------------------------------------------------------------------------------=
