
     Program PWSCF v.7.0 starts on 26Sep2022 at 20:54:48 

     This program is part of the open-source Quantum ESPRESSO suite
     for quantum simulation of materials; please cite
         "P. Giannozzi et al., J. Phys.:Condens. Matter 21 395502 (2009);
         "P. Giannozzi et al., J. Phys.:Condens. Matter 29 465901 (2017);
         "P. Giannozzi et al., J. Chem. Phys. 152 154105 (2020);
          URL http://www.quantum-espresso.org", 
     in publications or presentations arising from this work. More details at
     http://www.quantum-espresso.org/quote

     Serial multi-threaded version, running on    4 processor cores
     4434 MiB available memory on the printing compute node when the environment starts

     Waiting for input...
     Reading input from standard input

     Current dimensions of program PWSCF are:
     Max number of different atomic species (ntypx) = 10
     Max number of k-points (npk) =  40000
     Max angular momentum in pseudopotentials (lmaxx) =  4
     file Zn.pbe-dnl-rrkjus_psl.1.0.0.UPF: wavefunction(s)  3D renormalized

     IMPORTANT: XC functional enforced from input :
     Exchange-correlation= PBE
                           (   1   4   3   4   0   0   0)
     Any further DFT definition will be discarded
     Please, verify this is what you really want


     --------------------------------------------
     DFT-D3 Dispersion Correction (3-body terms):
     --------------------------------------------
       Reference C6 values for interpolation: 

         atom   Coordination number   C6
         O          0.000            31.01
         O          0.993            25.63
         O          1.989            20.74
         Zn         0.000           681.04
         Zn         1.942           306.91

       Values used:

         atom   Coordination number  R0_AB[au]  C6      C8
         Zn         3.816            3.053    306.91  23930.67
         O          2.921            2.345     20.74    418.58
         Zn         3.816            3.053    306.91  23930.67
         O          2.921            2.345     20.74    418.58
         Zn         3.816            3.053    306.91  23930.67
         O          2.921            2.345     20.74    418.58
         Zn         3.816            3.053    306.91  23930.67
         O          2.921            2.345     20.74    418.58

         Molecular C6 ( Ry / a.u.^6 ) =      7583.25

     Found identity + ( -0.0000  0.5000  0.0000) symmetry
     This is a supercell, fractional translations are disabled

     G-vector sticks info
     --------------------
     sticks:   dense  smooth     PW     G-vecs:    dense   smooth      PW
     Sum        2095    1261    361               237585   110555   16557

     Using Slab Decomposition



     bravais-lattice index     =            4
     lattice parameter (alat)  =      12.3286  a.u.
     unit-cell volume          =    4974.9089 (a.u.)^3
     number of atoms/cell      =            8
     number of atomic types    =            2
     number of electrons       =        72.00
     number of Kohn-Sham states=           43
     kinetic-energy cutoff     =      30.0000  Ry
     charge density cutoff     =     200.0000  Ry
     scf convergence threshold =      1.0E-06
     mixing beta               =       0.7000
     number of iterations used =            8  plain     mixing
     Exchange-correlation= PBE
                           (   1   4   3   4   0   0   0)

     celldm(1)=  12.328573  celldm(2)=   0.000000  celldm(3)=   3.065604
     celldm(4)=   0.000000  celldm(5)=   0.000000  celldm(6)=   0.000000

     crystal axes: (cart. coord. in units of alat)
               a(1) = (   1.000000   0.000000   0.000000 )  
               a(2) = (  -0.500000   0.866025   0.000000 )  
               a(3) = (   0.000000   0.000000   3.065604 )  

     reciprocal axes: (cart. coord. in units 2 pi/alat)
               b(1) = (  1.000000  0.577350 -0.000000 )  
               b(2) = (  0.000000  1.154701  0.000000 )  
               b(3) = (  0.000000 -0.000000  0.326200 )  


     PseudoPot. # 1 for Zn read from file:
     ./pseudo/Zn.pbe-dnl-rrkjus_psl.1.0.0.UPF
     MD5 check sum: 7f56cabf9682ed8c977c2f7d0c5985c5
     Pseudo is Ultrasoft + core correction, Zval = 12.0
     Generated using &quot;atomic&quot; code by A. Dal Corso  v.6.2.2
     Using radial grid of 1201 points,  6 beta functions with: 
                l(1) =   0
                l(2) =   0
                l(3) =   1
                l(4) =   1
                l(5) =   2
                l(6) =   2
     Q(r) pseudized with 0 coefficients 


     PseudoPot. # 2 for O  read from file:
     ./pseudo/O.pbe-n-rrkjus_psl.1.0.0.UPF
     MD5 check sum: 91400c9766925bcf19f520983a725ff0
     Pseudo is Ultrasoft + core correction, Zval =  6.0
     Generated using &quot;atomic&quot; code by A. Dal Corso  v.6.3MaX
     Using radial grid of 1095 points,  4 beta functions with: 
                l(1) =   0
                l(2) =   0
                l(3) =   1
                l(4) =   1
     Q(r) pseudized with 0 coefficients 


     atomic species   valence    mass     pseudopotential
        Zn            12.00    65.40900     Zn( 1.00)
        O              6.00    15.99940     O ( 1.00)

      6 Sym. Ops. (no inversion) found


                                    s                        frac. trans.

      isym =  1     identity                                     

 cryst.   s( 1) = (     1          0          0      )
                  (     0          1          0      )
                  (     0          0          1      )

 cart.    s( 1) = (  1.0000000  0.0000000  0.0000000 )
                  (  0.0000000  1.0000000  0.0000000 )
                  (  0.0000000  0.0000000  1.0000000 )


      isym =  2     120 deg rotation - cryst. axis [0,0,1]       

 cryst.   s( 2) = (     0          1          0      )
                  (    -1         -1          0      )
                  (     0          0          1      )

 cart.    s( 2) = ( -0.5000000 -0.8660254  0.0000000 )
                  (  0.8660254 -0.5000000  0.0000000 )
                  (  0.0000000  0.0000000  1.0000000 )


      isym =  3     120 deg rotation - cryst. axis [0,0,-1]      

 cryst.   s( 3) = (    -1         -1          0      )
                  (     1          0          0      )
                  (     0          0          1      )

 cart.    s( 3) = ( -0.5000000  0.8660254  0.0000000 )
                  ( -0.8660254 -0.5000000  0.0000000 )
                  (  0.0000000  0.0000000  1.0000000 )


      isym =  4     inv. 180 deg rotation - cart. axis [1,0,0]   

 cryst.   s( 4) = (    -1          0          0      )
                  (     1          1          0      )
                  (     0          0          1      )

 cart.    s( 4) = ( -1.0000000  0.0000000  0.0000000 )
                  (  0.0000000  1.0000000  0.0000000 )
                  (  0.0000000  0.0000000  1.0000000 )


      isym =  5     inv. 180 deg rotation - cryst. axis [0,1,0]  

 cryst.   s( 5) = (     1          1          0      )
                  (     0         -1          0      )
                  (     0          0          1      )

 cart.    s( 5) = (  0.5000000  0.8660254  0.0000000 )
                  (  0.8660254 -0.5000000  0.0000000 )
                  (  0.0000000  0.0000000  1.0000000 )


      isym =  6     inv. 180 deg rotation - cryst. axis [1,1,0]  

 cryst.   s( 6) = (     0         -1          0      )
                  (    -1          0          0      )
                  (     0          0          1      )

 cart.    s( 6) = (  0.5000000 -0.8660254  0.0000000 )
                  ( -0.8660254 -0.5000000  0.0000000 )
                  (  0.0000000  0.0000000  1.0000000 )


     point group C_3v (3m)  
     there are  3 classes
     the character table:

       E     2C3   3s_v 
A_1    1.00  1.00  1.00
A_2    1.00  1.00 -1.00
E      2.00 -1.00  0.00

     the symmetry operations in each class and the name of the first element:

     E        1
          identity                                               
     2C3      2    3
          120 deg rotation - cryst. axis [0,0,1]                 
     3s_v     4    5    6
          inv. 180 deg rotation - cart. axis [1,0,0]             

   Cartesian axes

     site n.     atom                  positions (alat units)
         1           Zn  tau(   1) = (   0.0000000   0.0000000   2.0232986  )
         2           O   tau(   2) = (   0.0000000   0.2886751   2.0232986  )
         3           Zn  tau(   3) = (  -0.2500000   0.4330127   2.0232986  )
         4           O   tau(   4) = (  -0.2500000   0.7216878   2.0232986  )
         5           Zn  tau(   5) = (   0.5000000   0.0000000   2.0232986  )
         6           O   tau(   6) = (   0.5000000   0.2886751   2.0232986  )
         7           Zn  tau(   7) = (   0.2500000   0.4330127   2.0232986  )
         8           O   tau(   8) = (   0.2500000   0.7216878   2.0232986  )

   Crystallographic axes

     site n.     atom                  positions (cryst. coord.)
         1           Zn  tau(   1) = (  0.0000000  0.0000000  0.6600000  )
         2           O   tau(   2) = (  0.1666667  0.3333333  0.6600000  )
         3           Zn  tau(   3) = ( -0.0000000  0.5000000  0.6600000  )
         4           O   tau(   4) = (  0.1666667  0.8333333  0.6600000  )
         5           Zn  tau(   5) = (  0.5000000  0.0000000  0.6600000  )
         6           O   tau(   6) = (  0.6666667  0.3333333  0.6600000  )
         7           Zn  tau(   7) = (  0.5000000  0.5000000  0.6600000  )
         8           O   tau(   8) = (  0.6666667  0.8333333  0.6600000  )

     number of k points=     7  Marzari-Vanderbilt smearing, width (Ry)=  0.0050
                       cart. coord. in units 2pi/alat
        k(    1) = (   0.0000000   0.0000000   0.0000000), wk =   0.0555556
        k(    2) = (   0.0000000   0.1924501   0.0000000), wk =   0.3333333
        k(    3) = (   0.0000000   0.3849002   0.0000000), wk =   0.3333333
        k(    4) = (   0.0000000  -0.5773503   0.0000000), wk =   0.1666667
        k(    5) = (   0.1666667   0.2886751   0.0000000), wk =   0.3333333
        k(    6) = (   0.1666667   0.4811252   0.0000000), wk =   0.6666667
        k(    7) = (   0.3333333   0.5773503   0.0000000), wk =   0.1111111

                       cryst. coord.
        k(    1) = (   0.0000000   0.0000000   0.0000000), wk =   0.0555556
        k(    2) = (   0.0000000   0.1666667   0.0000000), wk =   0.3333333
        k(    3) = (   0.0000000   0.3333333   0.0000000), wk =   0.3333333
        k(    4) = (   0.0000000  -0.5000000   0.0000000), wk =   0.1666667
        k(    5) = (   0.1666667   0.1666667   0.0000000), wk =   0.3333333
        k(    6) = (   0.1666667   0.3333333   0.0000000), wk =   0.6666667
        k(    7) = (   0.3333333   0.3333333   0.0000000), wk =   0.1111111

     Dense  grid:   237585 G-vectors     FFT dimensions: (  60,  60, 180)

     Smooth grid:   110555 G-vectors     FFT dimensions: (  45,  45, 135)

     Dynamical RAM for                 wfc:       9.06 MB

     Dynamical RAM for     wfc (w. buffer):      72.46 MB

     Dynamical RAM for           str. fact:       7.25 MB

     Dynamical RAM for           local pot:       0.00 MB

     Dynamical RAM for          nlocal pot:      21.91 MB

     Dynamical RAM for                qrad:       2.27 MB

     Dynamical RAM for          rho,v,vnew:      25.71 MB

     Dynamical RAM for               rhoin:       8.57 MB

     Dynamical RAM for            rho*nmix:      58.00 MB

     Dynamical RAM for           G-vectors:      14.44 MB

     Dynamical RAM for          h,s,v(r/c):       0.34 MB

     Dynamical RAM for          <psi|beta>:       0.07 MB

     Dynamical RAM for                 psi:      18.11 MB

     Dynamical RAM for                hpsi:      18.11 MB

     Dynamical RAM for                spsi:      18.11 MB

     Dynamical RAM for      wfcinit/wfcrot:      21.97 MB

     Dynamical RAM for           addusdens:     688.80 MB

     Estimated static dynamical RAM per process >     188.20 MB

     Estimated max dynamical RAM per process >     935.00 MB

     Check: negative core charge=   -0.000007

     Initial potential from superposition of free atoms

     starting charge      71.9851, renormalised to      72.0000

     negative rho (up, down):  8.413E-03 0.000E+00
     Starting wfcs are   52 randomized atomic wfcs

     total cpu time spent up to now is       11.7 secs

     Self-consistent Calculation

     iteration #  1     ecut=    30.00 Ry     beta= 0.70
     Davidson diagonalization with overlap

---- Real-time Memory Report at c_bands before calling an iterative solver
           794 MiB given to the printing process from OS
             0 MiB allocation reported by mallinfo(arena+hblkhd)
          4234 MiB available memory on the node where the printing process lives
------------------
     ethr =  1.00E-02,  avg # of iterations =  2.6

     negative rho (up, down):  9.306E-03 0.000E+00

     total cpu time spent up to now is       34.1 secs

     total energy              =    -721.63449918 Ry
     estimated scf accuracy    <       1.60227967 Ry

     iteration #  2     ecut=    30.00 Ry     beta= 0.70
     Davidson diagonalization with overlap

---- Real-time Memory Report at c_bands before calling an iterative solver
           914 MiB given to the printing process from OS
             0 MiB allocation reported by mallinfo(arena+hblkhd)
          4177 MiB available memory on the node where the printing process lives
------------------
     ethr =  2.23E-03,  avg # of iterations =  5.3

     negative rho (up, down):  1.383E-02 0.000E+00

     total cpu time spent up to now is       60.0 secs

     total energy              =    -721.81524682 Ry
     estimated scf accuracy    <       2.87765727 Ry

     iteration #  3     ecut=    30.00 Ry     beta= 0.70
     Davidson diagonalization with overlap

---- Real-time Memory Report at c_bands before calling an iterative solver
           917 MiB given to the printing process from OS
             0 MiB allocation reported by mallinfo(arena+hblkhd)
          4171 MiB available memory on the node where the printing process lives
------------------
     ethr =  2.23E-03,  avg # of iterations =  4.0

     negative rho (up, down):  9.997E-03 0.000E+00

     total cpu time spent up to now is       85.9 secs

     total energy              =    -722.37172973 Ry
     estimated scf accuracy    <       0.01934550 Ry

     iteration #  4     ecut=    30.00 Ry     beta= 0.70
     Davidson diagonalization with overlap

---- Real-time Memory Report at c_bands before calling an iterative solver
           920 MiB given to the printing process from OS
             0 MiB allocation reported by mallinfo(arena+hblkhd)
          4084 MiB available memory on the node where the printing process lives
------------------
     c_bands:  2 eigenvalues not converged
     c_bands:  1 eigenvalues not converged
     c_bands:  1 eigenvalues not converged
     ethr =  2.69E-05,  avg # of iterations = 12.1

     negative rho (up, down):  1.011E-02 0.000E+00

     total cpu time spent up to now is      126.9 secs

     total energy              =    -722.39217162 Ry
     estimated scf accuracy    <       0.02229894 Ry

     iteration #  5     ecut=    30.00 Ry     beta= 0.70
     Davidson diagonalization with overlap

---- Real-time Memory Report at c_bands before calling an iterative solver
           924 MiB given to the printing process from OS
             0 MiB allocation reported by mallinfo(arena+hblkhd)
          3888 MiB available memory on the node where the printing process lives
------------------
     ethr =  2.69E-05,  avg # of iterations =  2.0

     negative rho (up, down):  9.982E-03 0.000E+00

     total cpu time spent up to now is      148.2 secs

     total energy              =    -722.39387062 Ry
     estimated scf accuracy    <       0.00270224 Ry

     iteration #  6     ecut=    30.00 Ry     beta= 0.70
     Davidson diagonalization with overlap

---- Real-time Memory Report at c_bands before calling an iterative solver
           927 MiB given to the printing process from OS
             0 MiB allocation reported by mallinfo(arena+hblkhd)
          3808 MiB available memory on the node where the printing process lives
------------------
     c_bands:  2 eigenvalues not converged
     ethr =  3.75E-06,  avg # of iterations =  9.1

     negative rho (up, down):  1.009E-02 0.000E+00

     total cpu time spent up to now is      177.6 secs

     total energy              =    -722.39446259 Ry
     estimated scf accuracy    <       0.00013243 Ry

     iteration #  7     ecut=    30.00 Ry     beta= 0.70
     Davidson diagonalization with overlap

---- Real-time Memory Report at c_bands before calling an iterative solver
           930 MiB given to the printing process from OS
             0 MiB allocation reported by mallinfo(arena+hblkhd)
          3631 MiB available memory on the node where the printing process lives
------------------
     ethr =  1.84E-07,  avg # of iterations =  5.0

     negative rho (up, down):  1.010E-02 0.000E+00

     total cpu time spent up to now is      203.3 secs

     total energy              =    -722.39451090 Ry
     estimated scf accuracy    <       0.00000774 Ry

     iteration #  8     ecut=    30.00 Ry     beta= 0.70
     Davidson diagonalization with overlap

---- Real-time Memory Report at c_bands before calling an iterative solver
           934 MiB given to the printing process from OS
             0 MiB allocation reported by mallinfo(arena+hblkhd)
          3527 MiB available memory on the node where the printing process lives
------------------
     ethr =  1.07E-08,  avg # of iterations =  4.0

     negative rho (up, down):  1.011E-02 0.000E+00

     total cpu time spent up to now is      229.6 secs

     total energy              =    -722.39451339 Ry
     estimated scf accuracy    <       0.00000510 Ry

     iteration #  9     ecut=    30.00 Ry     beta= 0.70
     Davidson diagonalization with overlap

---- Real-time Memory Report at c_bands before calling an iterative solver
           937 MiB given to the printing process from OS
             0 MiB allocation reported by mallinfo(arena+hblkhd)
          3381 MiB available memory on the node where the printing process lives
------------------
     ethr =  7.08E-09,  avg # of iterations =  2.0

     negative rho (up, down):  1.011E-02 0.000E+00

     total cpu time spent up to now is      251.7 secs

     total energy              =    -722.39451318 Ry
     estimated scf accuracy    <       0.00000147 Ry

     iteration # 10     ecut=    30.00 Ry     beta= 0.70
     Davidson diagonalization with overlap

---- Real-time Memory Report at c_bands before calling an iterative solver
           941 MiB given to the printing process from OS
             0 MiB allocation reported by mallinfo(arena+hblkhd)
          3255 MiB available memory on the node where the printing process lives
------------------
     ethr =  2.05E-09,  avg # of iterations =  4.0

     negative rho (up, down):  1.011E-02 0.000E+00

     total cpu time spent up to now is      279.4 secs

     End of self-consistent calculation

          k = 0.0000 0.0000 0.0000 ( 13841 PWs)   bands (ev):

   -21.5030 -21.0220 -21.0209 -21.0209 -10.0552 -10.0552  -9.7404  -9.7404
    -9.7401  -9.1384  -9.1382  -9.1382  -9.1248  -9.1248  -9.1247  -8.6523
    -8.6523  -8.6523  -8.6300  -8.6071  -8.6071  -8.4659  -8.4659  -8.4659
    -7.5091  -7.5091  -7.5090  -6.2454  -5.5479  -5.5479  -5.5476  -4.5679
    -4.5670  -4.5670  -3.6645  -3.6645  -1.9935   0.8199   1.2365   1.9402
     2.0359   2.4980   2.4980

     occupation numbers 
     1.0000   1.0000   1.0000   1.0000   1.0000   1.0000   1.0000   1.0000
     1.0000   1.0000   1.0000   1.0000   1.0000   1.0000   1.0000   1.0000
     1.0000   1.0000   1.0000   1.0000   1.0000   1.0000   1.0000   1.0000
     1.0000   1.0000   1.0000   1.0000   1.0000   1.0000   1.0000   1.0000
     1.0000   1.0000   1.0000   1.0000   0.0000   0.0000   0.0000   0.0000
     0.0000   0.0000   0.0000

          k = 0.0000 0.1925 0.0000 ( 13807 PWs)   bands (ev):

   -21.4720 -21.0548 -21.0224 -21.0217 -10.0579 -10.0065  -9.8153  -9.7371
    -9.7370  -9.2028  -9.1299  -9.1297  -9.1107  -9.0930  -9.0930  -8.6622
    -8.6621  -8.6578  -8.6465  -8.6133  -8.6094  -8.4842  -8.4593  -8.4593
    -7.4462  -7.4461  -7.2364  -6.1211  -5.7138  -5.7136  -5.4036  -4.6781
    -4.5698  -4.5692  -4.0664  -3.7813  -1.5738   0.9133   1.3727   1.9891
     2.0851   2.1475   2.4304

     occupation numbers 
     1.0000   1.0000   1.0000   1.0000   1.0000   1.0000   1.0000   1.0000
     1.0000   1.0000   1.0000   1.0000   1.0000   1.0000   1.0000   1.0000
     1.0000   1.0000   1.0000   1.0000   1.0000   1.0000   1.0000   1.0000
     1.0000   1.0000   1.0000   1.0000   1.0000   1.0000   1.0000   1.0000
     1.0000   1.0000   1.0000   1.0000   0.0000   0.0000   0.0000   0.0000
     0.0000   0.0000   0.0000

          k = 0.0000 0.3849 0.0000 ( 13794 PWs)   bands (ev):

   -21.3865 -21.1457 -21.0239 -21.0232 -10.0847  -9.9574  -9.8646  -9.7317
    -9.7315  -9.4138  -9.1025  -9.1024  -9.0410  -9.0395  -9.0395  -8.7857
    -8.6831  -8.6830  -8.6406  -8.6143  -8.5895  -8.5152  -8.4396  -8.4396
    -7.2545  -7.2544  -6.5707  -6.1077  -6.1074  -5.8104  -5.0283  -4.9947
    -4.8752  -4.5689  -4.5683  -4.1053  -0.7808   1.0727   1.1736   1.7775
     2.0111   2.4813   2.6021

     occupation numbers 
     1.0000   1.0000   1.0000   1.0000   1.0000   1.0000   1.0000   1.0000
     1.0000   1.0000   1.0000   1.0000   1.0000   1.0000   1.0000   1.0000
     1.0000   1.0000   1.0000   1.0000   1.0000   1.0000   1.0000   1.0000
     1.0000   1.0000   1.0000   1.0000   1.0000   1.0000   1.0000   1.0000
     1.0000   1.0000   1.0000   1.0000   0.0000   0.0000   0.0000   0.0000
     0.0000   0.0000   0.0000

          k = 0.0000-0.5774 0.0000 ( 13804 PWs)   bands (ev):

   -21.2678 -21.2671 -21.0248 -21.0240 -10.0593 -10.0591  -9.7328  -9.7326
    -9.6586  -9.6583  -9.0876  -9.0875  -9.0139  -9.0139  -8.9236  -8.9235
    -8.6994  -8.6994  -8.6291  -8.6290  -8.5528  -8.5527  -8.4314  -8.4314
    -7.0812  -7.0810  -6.3826  -6.3822  -5.7434  -5.7431  -5.3937  -5.3931
    -4.5817  -4.5811  -4.5591  -4.5586   0.1194   0.1194   1.5630   1.5632
     2.6142   2.6233   2.6594

     occupation numbers 
     1.0000   1.0000   1.0000   1.0000   1.0000   1.0000   1.0000   1.0000
     1.0000   1.0000   1.0000   1.0000   1.0000   1.0000   1.0000   1.0000
     1.0000   1.0000   1.0000   1.0000   1.0000   1.0000   1.0000   1.0000
     1.0000   1.0000   1.0000   1.0000   1.0000   1.0000   1.0000   1.0000
     1.0000   1.0000   1.0000   1.0000   0.0000   0.0000   0.0000   0.0000
     0.0000   0.0000   0.0000

          k = 0.1667 0.2887 0.0000 ( 13801 PWs)   bands (ev):

   -21.4137 -21.0847 -21.0840 -20.9947 -10.0799  -9.9130  -9.8677  -9.8676
    -9.6435  -9.2558  -9.2558  -9.1239  -9.0809  -9.0808  -8.9429  -8.7439
    -8.6925  -8.6560  -8.6560  -8.6156  -8.5942  -8.4935  -8.4935  -8.3813
    -7.5439  -6.9468  -6.9466  -6.2829  -5.8997  -5.4315  -5.4313  -4.7842
    -4.7836  -4.6202  -4.4841  -4.0341  -0.9986   1.0913   1.6433   1.7108
     1.7108   2.2887   2.2888

     occupation numbers 
     1.0000   1.0000   1.0000   1.0000   1.0000   1.0000   1.0000   1.0000
     1.0000   1.0000   1.0000   1.0000   1.0000   1.0000   1.0000   1.0000
     1.0000   1.0000   1.0000   1.0000   1.0000   1.0000   1.0000   1.0000
     1.0000   1.0000   1.0000   1.0000   1.0000   1.0000   1.0000   1.0000
     1.0000   1.0000   1.0000   1.0000   0.0000   0.0000   0.0000   0.0000
     0.0000   0.0000   0.0000

          k = 0.1667 0.4811 0.0000 ( 13791 PWs)   bands (ev):

   -21.3114 -21.1908 -21.1018 -20.9795 -10.0774 -10.0035  -9.8958  -9.7358
    -9.5833  -9.4961  -9.2690  -9.1108  -9.0499  -8.9902  -8.8728  -8.8550
    -8.7205  -8.6685  -8.6395  -8.6263  -8.5675  -8.5294  -8.4980  -8.2510
    -7.4598  -6.8604  -6.6498  -6.2001  -5.6601  -5.5449  -5.3923  -5.1310
    -4.9784  -4.8362  -4.4669  -4.4288  -0.1818   0.7485   1.4152   1.6256
     1.8399   2.1790   2.2166

     occupation numbers 
     1.0000   1.0000   1.0000   1.0000   1.0000   1.0000   1.0000   1.0000
     1.0000   1.0000   1.0000   1.0000   1.0000   1.0000   1.0000   1.0000
     1.0000   1.0000   1.0000   1.0000   1.0000   1.0000   1.0000   1.0000
     1.0000   1.0000   1.0000   1.0000   1.0000   1.0000   1.0000   1.0000
     1.0000   1.0000   1.0000   1.0000   0.0000   0.0000   0.0000   0.0000
     0.0000   0.0000   0.0000

          k = 0.3333 0.5774 0.0000 ( 13815 PWs)   bands (ev):

   -21.2081 -21.2070 -21.2070 -20.9635 -10.0233 -10.0232 -10.0231  -9.5218
    -9.5187  -9.5185  -9.5185  -9.1086  -8.9719  -8.9719  -8.9718  -8.8154
    -8.7334  -8.6499  -8.6498  -8.6498  -8.5368  -8.5368  -8.5367  -8.0104
    -7.4702  -7.3713  -6.0061  -6.0060  -6.0059  -5.1963  -5.1955  -5.1955
    -5.0570  -5.0568  -5.0565  -4.3631   0.6588   0.6589   0.6589   1.7767
     1.7769   1.7769   3.2234

     occupation numbers 
     1.0000   1.0000   1.0000   1.0000   1.0000   1.0000   1.0000   1.0000
     1.0000   1.0000   1.0000   1.0000   1.0000   1.0000   1.0000   1.0000
     1.0000   1.0000   1.0000   1.0000   1.0000   1.0000   1.0000   1.0000
     1.0000   1.0000   1.0000   1.0000   1.0000   1.0000   1.0000   1.0000
     1.0000   1.0000   1.0000   1.0000   0.0000   0.0000   0.0000   0.0000
     0.0000   0.0000   0.0000

     the Fermi energy is    -2.6181 ev

!    total energy              =    -722.39451348 Ry
     estimated scf accuracy    <       0.00000010 Ry
     smearing contrib. (-TS)   =      -0.00000000 Ry
     internal energy E=F+TS    =    -722.39451348 Ry

     The total energy is F=E-TS. E is the sum of the following terms:
     one-electron contribution =   -2958.84887287 Ry
     hartree contribution      =    1532.39436714 Ry
     xc contribution           =    -218.37214471 Ry
     ewald contribution        =     922.47038283 Ry
     DFT-D3 Dispersion         =      -0.03824587 Ry

     convergence has been achieved in  10 iterations

     Writing all to output data dir ./work/zno1.save/

     init_run     :     25.20s CPU     11.49s WALL (       1 calls)
     electrons    :    578.05s CPU    267.78s WALL (       1 calls)

     Called by init_run:
     wfcinit      :     17.17s CPU      7.78s WALL (       1 calls)
     wfcinit:atom :      0.28s CPU      0.07s WALL (       7 calls)
     wfcinit:wfcr :     16.44s CPU      7.42s WALL (       7 calls)
     potinit      :      2.02s CPU      0.71s WALL (       1 calls)
     hinit0       :      2.42s CPU      1.42s WALL (       1 calls)

     Called by electrons:
     c_bands      :    440.20s CPU    211.44s WALL (      10 calls)
     sum_band     :     95.49s CPU     38.98s WALL (      10 calls)
     v_of_rho     :      7.85s CPU      2.38s WALL (      11 calls)
     v_h          :      0.62s CPU      0.19s WALL (      11 calls)
     v_xc         :      7.23s CPU      2.19s WALL (      11 calls)
     newd         :     36.67s CPU     15.95s WALL (      11 calls)
     mix_rho      :      1.22s CPU      0.42s WALL (      10 calls)
     energy_dftd3 :      0.02s CPU      0.02s WALL (       1 calls)

     Called by c_bands:
     init_us_2    :      2.05s CPU      0.66s WALL (     147 calls)
     init_us_2:cp :      2.05s CPU      0.66s WALL (     147 calls)
     cegterg      :    433.78s CPU    209.49s WALL (      70 calls)

     Called by sum_band:
     sum_band:wei :      0.00s CPU      0.00s WALL (      10 calls)
     sum_band:loo :     58.77s CPU     22.63s WALL (      10 calls)
     sum_band:buf :      0.31s CPU      0.12s WALL (      70 calls)
     sum_band:ini :      1.09s CPU      0.31s WALL (      70 calls)
     sum_band:cal :     12.28s CPU      9.21s WALL (      70 calls)
     sum_band:bec :      0.19s CPU      0.08s WALL (      70 calls)
     addusdens    :     36.01s CPU     16.11s WALL (      10 calls)
     addusd:skk   :      0.23s CPU      0.07s WALL (      20 calls)
     addusd:dgemm :      6.05s CPU      7.38s WALL (      20 calls)
     addusd:qvan2 :     27.58s CPU      7.86s WALL (      20 calls)

     Called by *egterg:
     cdiaghg      :      1.82s CPU      1.18s WALL (     421 calls)
     cegterg:over :     26.83s CPU     24.47s WALL (     351 calls)
     cegterg:upda :     26.10s CPU     12.83s WALL (     351 calls)
     cegterg:last :     36.97s CPU     28.33s WALL (     158 calls)
     h_psi        :    309.89s CPU    117.98s WALL (     428 calls)
     s_psi        :     36.09s CPU     21.82s WALL (     428 calls)
     g_psi        :      0.86s CPU      0.35s WALL (     351 calls)

     Called by h_psi:
     h_psi:calbec :     43.08s CPU     27.28s WALL (     428 calls)
     vloc_psi     :    243.49s CPU     69.14s WALL (     428 calls)
     add_vuspsi   :     22.02s CPU     21.05s WALL (     428 calls)

     General routines
     calbec       :     55.36s CPU     36.48s WALL (     498 calls)
     fft          :      5.06s CPU      1.91s WALL (     141 calls)
     ffts         :      1.10s CPU      0.44s WALL (      21 calls)
     fftw         :    237.66s CPU     67.34s WALL (   20796 calls)
     interpolate  :      1.43s CPU      0.55s WALL (      11 calls)


     PWSCF        :  10m 3.72s CPU   4m39.57s WALL


   This run was terminated on:  20:59:27  26Sep2022            

=------------------------------------------------------------------------------=
   JOB DONE.
=------------------------------------------------------------------------------=
