
     Program PWSCF v.7.0 starts on 26Sep2022 at 21:32: 6 

     This program is part of the open-source Quantum ESPRESSO suite
     for quantum simulation of materials; please cite
         "P. Giannozzi et al., J. Phys.:Condens. Matter 21 395502 (2009);
         "P. Giannozzi et al., J. Phys.:Condens. Matter 29 465901 (2017);
         "P. Giannozzi et al., J. Chem. Phys. 152 154105 (2020);
          URL http://www.quantum-espresso.org", 
     in publications or presentations arising from this work. More details at
     http://www.quantum-espresso.org/quote

     Serial multi-threaded version, running on    4 processor cores
     1574 MiB available memory on the printing compute node when the environment starts

     Waiting for input...
     Reading input from standard input

     Current dimensions of program PWSCF are:
     Max number of different atomic species (ntypx) = 10
     Max number of k-points (npk) =  40000
     Max angular momentum in pseudopotentials (lmaxx) =  4
     file Zn.pbe-dnl-rrkjus_psl.1.0.0.UPF: wavefunction(s)  3D renormalized

     IMPORTANT: XC functional enforced from input :
     Exchange-correlation= PBE
                           (   1   4   3   4   0   0   0)
     Any further DFT definition will be discarded
     Please, verify this is what you really want


     --------------------------------------------
     DFT-D3 Dispersion Correction (3-body terms):
     --------------------------------------------
       Reference C6 values for interpolation: 

         atom   Coordination number   C6
         O          0.000            31.01
         O          0.993            25.63
         O          1.989            20.74
         Zn         0.000           681.04
         Zn         1.942           306.91

       Values used:

         atom   Coordination number  R0_AB[au]  C6      C8
         Zn         3.816            3.053    306.91  23930.67
         O          2.921            2.345     20.74    418.58
         Zn         3.816            3.053    306.91  23930.67
         O          2.921            2.345     20.74    418.58
         Zn         3.816            3.053    306.91  23930.67
         O          2.921            2.345     20.74    418.58
         Zn         3.816            3.053    306.91  23930.67
         O          2.921            2.345     20.74    418.58

         Molecular C6 ( Ry / a.u.^6 ) =      7583.25

     Found identity + ( -0.0000  0.5000  0.0000) symmetry
     This is a supercell, fractional translations are disabled

     G-vector sticks info
     --------------------
     sticks:   dense  smooth     PW     G-vecs:    dense   smooth      PW
     Sum        2095    1261    361               237585   110555   16557

     Using Slab Decomposition



     bravais-lattice index     =            4
     lattice parameter (alat)  =      12.3286  a.u.
     unit-cell volume          =    4974.9089 (a.u.)^3
     number of atoms/cell      =            8
     number of atomic types    =            2
     number of electrons       =        72.00
     number of Kohn-Sham states=           43
     kinetic-energy cutoff     =      30.0000  Ry
     charge density cutoff     =     200.0000  Ry
     scf convergence threshold =      1.0E-06
     mixing beta               =       0.7000
     number of iterations used =            8  plain     mixing
     Exchange-correlation= PBE
                           (   1   4   3   4   0   0   0)

     celldm(1)=  12.328573  celldm(2)=   0.000000  celldm(3)=   3.065604
     celldm(4)=   0.000000  celldm(5)=   0.000000  celldm(6)=   0.000000

     crystal axes: (cart. coord. in units of alat)
               a(1) = (   1.000000   0.000000   0.000000 )  
               a(2) = (  -0.500000   0.866025   0.000000 )  
               a(3) = (   0.000000   0.000000   3.065604 )  

     reciprocal axes: (cart. coord. in units 2 pi/alat)
               b(1) = (  1.000000  0.577350 -0.000000 )  
               b(2) = (  0.000000  1.154701  0.000000 )  
               b(3) = (  0.000000 -0.000000  0.326200 )  


     PseudoPot. # 1 for Zn read from file:
     ./pseudo/Zn.pbe-dnl-rrkjus_psl.1.0.0.UPF
     MD5 check sum: 7f56cabf9682ed8c977c2f7d0c5985c5
     Pseudo is Ultrasoft + core correction, Zval = 12.0
     Generated using &quot;atomic&quot; code by A. Dal Corso  v.6.2.2
     Using radial grid of 1201 points,  6 beta functions with: 
                l(1) =   0
                l(2) =   0
                l(3) =   1
                l(4) =   1
                l(5) =   2
                l(6) =   2
     Q(r) pseudized with 0 coefficients 


     PseudoPot. # 2 for O  read from file:
     ./pseudo/O.pbe-n-rrkjus_psl.1.0.0.UPF
     MD5 check sum: 91400c9766925bcf19f520983a725ff0
     Pseudo is Ultrasoft + core correction, Zval =  6.0
     Generated using &quot;atomic&quot; code by A. Dal Corso  v.6.3MaX
     Using radial grid of 1095 points,  4 beta functions with: 
                l(1) =   0
                l(2) =   0
                l(3) =   1
                l(4) =   1
     Q(r) pseudized with 0 coefficients 


     atomic species   valence    mass     pseudopotential
        Zn            12.00    65.40900     Zn( 1.00)
        O              6.00    15.99940     O ( 1.00)

      6 Sym. Ops. (no inversion) found


                                    s                        frac. trans.

      isym =  1     identity                                     

 cryst.   s( 1) = (     1          0          0      )
                  (     0          1          0      )
                  (     0          0          1      )

 cart.    s( 1) = (  1.0000000  0.0000000  0.0000000 )
                  (  0.0000000  1.0000000  0.0000000 )
                  (  0.0000000  0.0000000  1.0000000 )


      isym =  2     120 deg rotation - cryst. axis [0,0,1]       

 cryst.   s( 2) = (     0          1          0      )
                  (    -1         -1          0      )
                  (     0          0          1      )

 cart.    s( 2) = ( -0.5000000 -0.8660254  0.0000000 )
                  (  0.8660254 -0.5000000  0.0000000 )
                  (  0.0000000  0.0000000  1.0000000 )


      isym =  3     120 deg rotation - cryst. axis [0,0,-1]      

 cryst.   s( 3) = (    -1         -1          0      )
                  (     1          0          0      )
                  (     0          0          1      )

 cart.    s( 3) = ( -0.5000000  0.8660254  0.0000000 )
                  ( -0.8660254 -0.5000000  0.0000000 )
                  (  0.0000000  0.0000000  1.0000000 )


      isym =  4     inv. 180 deg rotation - cart. axis [1,0,0]   

 cryst.   s( 4) = (    -1          0          0      )
                  (     1          1          0      )
                  (     0          0          1      )

 cart.    s( 4) = ( -1.0000000  0.0000000  0.0000000 )
                  (  0.0000000  1.0000000  0.0000000 )
                  (  0.0000000  0.0000000  1.0000000 )


      isym =  5     inv. 180 deg rotation - cryst. axis [0,1,0]  

 cryst.   s( 5) = (     1          1          0      )
                  (     0         -1          0      )
                  (     0          0          1      )

 cart.    s( 5) = (  0.5000000  0.8660254  0.0000000 )
                  (  0.8660254 -0.5000000  0.0000000 )
                  (  0.0000000  0.0000000  1.0000000 )


      isym =  6     inv. 180 deg rotation - cryst. axis [1,1,0]  

 cryst.   s( 6) = (     0         -1          0      )
                  (    -1          0          0      )
                  (     0          0          1      )

 cart.    s( 6) = (  0.5000000 -0.8660254  0.0000000 )
                  ( -0.8660254 -0.5000000  0.0000000 )
                  (  0.0000000  0.0000000  1.0000000 )


     point group C_3v (3m)  
     there are  3 classes
     the character table:

       E     2C3   3s_v 
A_1    1.00  1.00  1.00
A_2    1.00  1.00 -1.00
E      2.00 -1.00  0.00

     the symmetry operations in each class and the name of the first element:

     E        1
          identity                                               
     2C3      2    3
          120 deg rotation - cryst. axis [0,0,1]                 
     3s_v     4    5    6
          inv. 180 deg rotation - cart. axis [1,0,0]             

   Cartesian axes

     site n.     atom                  positions (alat units)
         1           Zn  tau(   1) = (   0.2500000   0.1443376   2.0692826  )
         2           O   tau(   2) = (   0.2500000   0.4330127   2.0692826  )
         3           Zn  tau(   3) = (   0.0000000   0.5773503   2.0692826  )
         4           O   tau(   4) = (   0.0000000   0.8660254   2.0692826  )
         5           Zn  tau(   5) = (   0.7500000   0.1443376   2.0692826  )
         6           O   tau(   6) = (   0.7500000   0.4330127   2.0692826  )
         7           Zn  tau(   7) = (   0.5000000   0.5773503   2.0692826  )
         8           O   tau(   8) = (   0.5000000   0.8660254   2.0692826  )

   Crystallographic axes

     site n.     atom                  positions (cryst. coord.)
         1           Zn  tau(   1) = (  0.3333333  0.1666667  0.6750000  )
         2           O   tau(   2) = (  0.5000000  0.5000000  0.6750000  )
         3           Zn  tau(   3) = (  0.3333333  0.6666667  0.6750000  )
         4           O   tau(   4) = (  0.5000000  1.0000000  0.6750000  )
         5           Zn  tau(   5) = (  0.8333333  0.1666667  0.6750000  )
         6           O   tau(   6) = (  1.0000000  0.5000000  0.6750000  )
         7           Zn  tau(   7) = (  0.8333333  0.6666667  0.6750000  )
         8           O   tau(   8) = (  1.0000000  1.0000000  0.6750000  )

     number of k points=     7  Marzari-Vanderbilt smearing, width (Ry)=  0.0050
                       cart. coord. in units 2pi/alat
        k(    1) = (   0.0000000   0.0000000   0.0000000), wk =   0.0555556
        k(    2) = (   0.0000000   0.1924501   0.0000000), wk =   0.3333333
        k(    3) = (   0.0000000   0.3849002   0.0000000), wk =   0.3333333
        k(    4) = (   0.0000000  -0.5773503   0.0000000), wk =   0.1666667
        k(    5) = (   0.1666667   0.2886751   0.0000000), wk =   0.3333333
        k(    6) = (   0.1666667   0.4811252   0.0000000), wk =   0.6666667
        k(    7) = (   0.3333333   0.5773503   0.0000000), wk =   0.1111111

                       cryst. coord.
        k(    1) = (   0.0000000   0.0000000   0.0000000), wk =   0.0555556
        k(    2) = (   0.0000000   0.1666667   0.0000000), wk =   0.3333333
        k(    3) = (   0.0000000   0.3333333   0.0000000), wk =   0.3333333
        k(    4) = (   0.0000000  -0.5000000   0.0000000), wk =   0.1666667
        k(    5) = (   0.1666667   0.1666667   0.0000000), wk =   0.3333333
        k(    6) = (   0.1666667   0.3333333   0.0000000), wk =   0.6666667
        k(    7) = (   0.3333333   0.3333333   0.0000000), wk =   0.1111111

     Dense  grid:   237585 G-vectors     FFT dimensions: (  60,  60, 180)

     Smooth grid:   110555 G-vectors     FFT dimensions: (  45,  45, 135)

     Dynamical RAM for                 wfc:       9.06 MB

     Dynamical RAM for     wfc (w. buffer):      72.46 MB

     Dynamical RAM for           str. fact:       7.25 MB

     Dynamical RAM for           local pot:       0.00 MB

     Dynamical RAM for          nlocal pot:      21.91 MB

     Dynamical RAM for                qrad:       2.27 MB

     Dynamical RAM for          rho,v,vnew:      25.71 MB

     Dynamical RAM for               rhoin:       8.57 MB

     Dynamical RAM for            rho*nmix:      58.00 MB

     Dynamical RAM for           G-vectors:      14.44 MB

     Dynamical RAM for          h,s,v(r/c):       0.34 MB

     Dynamical RAM for          <psi|beta>:       0.07 MB

     Dynamical RAM for                 psi:      18.11 MB

     Dynamical RAM for                hpsi:      18.11 MB

     Dynamical RAM for                spsi:      18.11 MB

     Dynamical RAM for      wfcinit/wfcrot:      21.97 MB

     Dynamical RAM for           addusdens:     688.80 MB

     Estimated static dynamical RAM per process >     188.20 MB

     Estimated max dynamical RAM per process >     935.00 MB

     Check: negative core charge=   -0.000007

     Initial potential from superposition of free atoms

     starting charge      71.9851, renormalised to      72.0000

     negative rho (up, down):  8.351E-03 0.000E+00
     Starting wfcs are   52 randomized atomic wfcs

     total cpu time spent up to now is       10.8 secs

     Self-consistent Calculation

     iteration #  1     ecut=    30.00 Ry     beta= 0.70
     Davidson diagonalization with overlap

---- Real-time Memory Report at c_bands before calling an iterative solver
           793 MiB given to the printing process from OS
             0 MiB allocation reported by mallinfo(arena+hblkhd)
          1412 MiB available memory on the node where the printing process lives
------------------
     ethr =  1.00E-02,  avg # of iterations =  2.6

     negative rho (up, down):  9.269E-03 0.000E+00

     total cpu time spent up to now is       33.8 secs

     total energy              =    -721.63449970 Ry
     estimated scf accuracy    <       1.60228181 Ry

     iteration #  2     ecut=    30.00 Ry     beta= 0.70
     Davidson diagonalization with overlap

---- Real-time Memory Report at c_bands before calling an iterative solver
           912 MiB given to the printing process from OS
             0 MiB allocation reported by mallinfo(arena+hblkhd)
          1501 MiB available memory on the node where the printing process lives
------------------
     ethr =  2.23E-03,  avg # of iterations =  5.3

     negative rho (up, down):  1.392E-02 0.000E+00

     total cpu time spent up to now is       57.8 secs

     total energy              =    -721.81524230 Ry
     estimated scf accuracy    <       2.87767194 Ry

     iteration #  3     ecut=    30.00 Ry     beta= 0.70
     Davidson diagonalization with overlap

---- Real-time Memory Report at c_bands before calling an iterative solver
           916 MiB given to the printing process from OS
             0 MiB allocation reported by mallinfo(arena+hblkhd)
          1505 MiB available memory on the node where the printing process lives
------------------
     ethr =  2.23E-03,  avg # of iterations =  4.0

     negative rho (up, down):  1.002E-02 0.000E+00

     total cpu time spent up to now is       78.3 secs

     total energy              =    -722.37086582 Ry
     estimated scf accuracy    <       0.01943950 Ry

     iteration #  4     ecut=    30.00 Ry     beta= 0.70
     Davidson diagonalization with overlap

---- Real-time Memory Report at c_bands before calling an iterative solver
           919 MiB given to the printing process from OS
             0 MiB allocation reported by mallinfo(arena+hblkhd)
          1504 MiB available memory on the node where the printing process lives
------------------
     c_bands:  1 eigenvalues not converged
     ethr =  2.70E-05,  avg # of iterations = 11.9

     negative rho (up, down):  1.009E-02 0.000E+00

     total cpu time spent up to now is      112.0 secs

     total energy              =    -722.39212580 Ry
     estimated scf accuracy    <       0.02352014 Ry

     iteration #  5     ecut=    30.00 Ry     beta= 0.70
     Davidson diagonalization with overlap

---- Real-time Memory Report at c_bands before calling an iterative solver
           923 MiB given to the printing process from OS
             0 MiB allocation reported by mallinfo(arena+hblkhd)
          1505 MiB available memory on the node where the printing process lives
------------------
     ethr =  2.70E-05,  avg # of iterations =  2.0

     negative rho (up, down):  9.962E-03 0.000E+00

     total cpu time spent up to now is      129.2 secs

     total energy              =    -722.39383685 Ry
     estimated scf accuracy    <       0.00292075 Ry

     iteration #  6     ecut=    30.00 Ry     beta= 0.70
     Davidson diagonalization with overlap

---- Real-time Memory Report at c_bands before calling an iterative solver
           926 MiB given to the printing process from OS
             0 MiB allocation reported by mallinfo(arena+hblkhd)
          1494 MiB available memory on the node where the printing process lives
------------------
     c_bands:  2 eigenvalues not converged
     c_bands:  2 eigenvalues not converged
     ethr =  4.06E-06,  avg # of iterations = 11.6

     negative rho (up, down):  1.006E-02 0.000E+00

     total cpu time spent up to now is      153.9 secs

     total energy              =    -722.39444798 Ry
     estimated scf accuracy    <       0.00015857 Ry

     iteration #  7     ecut=    30.00 Ry     beta= 0.70
     Davidson diagonalization with overlap

---- Real-time Memory Report at c_bands before calling an iterative solver
           929 MiB given to the printing process from OS
             0 MiB allocation reported by mallinfo(arena+hblkhd)
          1499 MiB available memory on the node where the printing process lives
------------------
     c_bands:  1 eigenvalues not converged
     ethr =  2.20E-07,  avg # of iterations =  6.6

     negative rho (up, down):  1.007E-02 0.000E+00

     total cpu time spent up to now is      176.1 secs

     total energy              =    -722.39450946 Ry
     estimated scf accuracy    <       0.00001543 Ry

     iteration #  8     ecut=    30.00 Ry     beta= 0.70
     Davidson diagonalization with overlap

---- Real-time Memory Report at c_bands before calling an iterative solver
           933 MiB given to the printing process from OS
             0 MiB allocation reported by mallinfo(arena+hblkhd)
          1508 MiB available memory on the node where the printing process lives
------------------
     ethr =  2.14E-08,  avg # of iterations =  4.6

     negative rho (up, down):  1.008E-02 0.000E+00

     total cpu time spent up to now is      197.8 secs

     total energy              =    -722.39451292 Ry
     estimated scf accuracy    <       0.00000646 Ry

     iteration #  9     ecut=    30.00 Ry     beta= 0.70
     Davidson diagonalization with overlap

---- Real-time Memory Report at c_bands before calling an iterative solver
           936 MiB given to the printing process from OS
             0 MiB allocation reported by mallinfo(arena+hblkhd)
          1498 MiB available memory on the node where the printing process lives
------------------
     ethr =  8.97E-09,  avg # of iterations =  1.6

     negative rho (up, down):  1.008E-02 0.000E+00

     total cpu time spent up to now is      214.7 secs

     total energy              =    -722.39451254 Ry
     estimated scf accuracy    <       0.00000199 Ry

     iteration # 10     ecut=    30.00 Ry     beta= 0.70
     Davidson diagonalization with overlap

---- Real-time Memory Report at c_bands before calling an iterative solver
           939 MiB given to the printing process from OS
             0 MiB allocation reported by mallinfo(arena+hblkhd)
          1506 MiB available memory on the node where the printing process lives
------------------
     ethr =  2.76E-09,  avg # of iterations =  3.3

     negative rho (up, down):  1.008E-02 0.000E+00

     total cpu time spent up to now is      236.9 secs

     End of self-consistent calculation

          k = 0.0000 0.0000 0.0000 ( 13841 PWs)   bands (ev):

   -21.5032 -21.0216 -21.0216 -21.0210 -10.0553 -10.0553  -9.7405  -9.7403
    -9.7403  -9.1384  -9.1384  -9.1382  -9.1248  -9.1248  -9.1248  -8.6523
    -8.6523  -8.6523  -8.6300  -8.6071  -8.6071  -8.4659  -8.4659  -8.4659
    -7.5092  -7.5091  -7.5091  -6.2455  -5.5481  -5.5479  -5.5479  -4.5676
    -4.5676  -4.5671  -3.6646  -3.6646  -1.9936   0.8197   1.2358   1.9400
     2.0348   2.4979   2.4979

     occupation numbers 
     1.0000   1.0000   1.0000   1.0000   1.0000   1.0000   1.0000   1.0000
     1.0000   1.0000   1.0000   1.0000   1.0000   1.0000   1.0000   1.0000
     1.0000   1.0000   1.0000   1.0000   1.0000   1.0000   1.0000   1.0000
     1.0000   1.0000   1.0000   1.0000   1.0000   1.0000   1.0000   1.0000
     1.0000   1.0000   1.0000   1.0000   0.0000   0.0000   0.0000   0.0000
     0.0000   0.0000   0.0000

          k = 0.0000 0.1925 0.0000 ( 13807 PWs)   bands (ev):

   -21.4721 -21.0550 -21.0224 -21.0220 -10.0579 -10.0065  -9.8154  -9.7372
    -9.7371  -9.2028  -9.1299  -9.1298  -9.1108  -9.0931  -9.0931  -8.6622
    -8.6622  -8.6579  -8.6465  -8.6133  -8.6094  -8.4842  -8.4594  -8.4594
    -7.4462  -7.4462  -7.2365  -6.1213  -5.7139  -5.7137  -5.4037  -4.6782
    -4.5698  -4.5695  -4.0665  -3.7814  -1.5739   0.9131   1.3719   1.9891
     2.0855   2.1465   2.4303

     occupation numbers 
     1.0000   1.0000   1.0000   1.0000   1.0000   1.0000   1.0000   1.0000
     1.0000   1.0000   1.0000   1.0000   1.0000   1.0000   1.0000   1.0000
     1.0000   1.0000   1.0000   1.0000   1.0000   1.0000   1.0000   1.0000
     1.0000   1.0000   1.0000   1.0000   1.0000   1.0000   1.0000   1.0000
     1.0000   1.0000   1.0000   1.0000   0.0000   0.0000   0.0000   0.0000
     0.0000   0.0000   0.0000

          k = 0.0000 0.3849 0.0000 ( 13794 PWs)   bands (ev):

   -21.3866 -21.1458 -21.0240 -21.0235 -10.0848  -9.9575  -9.8646  -9.7318
    -9.7316  -9.4139  -9.1026  -9.1025  -9.0411  -9.0396  -9.0395  -8.7857
    -8.6831  -8.6831  -8.6407  -8.6143  -8.5896  -8.5152  -8.4396  -8.4396
    -7.2546  -7.2545  -6.5708  -6.1078  -6.1076  -5.8106  -5.0284  -4.9948
    -4.8753  -4.5689  -4.5686  -4.1054  -0.7809   1.0727   1.1735   1.7769
     2.0111   2.4802   2.6022

     occupation numbers 
     1.0000   1.0000   1.0000   1.0000   1.0000   1.0000   1.0000   1.0000
     1.0000   1.0000   1.0000   1.0000   1.0000   1.0000   1.0000   1.0000
     1.0000   1.0000   1.0000   1.0000   1.0000   1.0000   1.0000   1.0000
     1.0000   1.0000   1.0000   1.0000   1.0000   1.0000   1.0000   1.0000
     1.0000   1.0000   1.0000   1.0000   0.0000   0.0000   0.0000   0.0000
     0.0000   0.0000   0.0000

          k = 0.0000-0.5774 0.0000 ( 13804 PWs)   bands (ev):

   -21.2678 -21.2674 -21.0248 -21.0243 -10.0594 -10.0592  -9.7328  -9.7327
    -9.6586  -9.6584  -9.0876  -9.0875  -9.0140  -9.0139  -8.9236  -8.9235
    -8.6994  -8.6994  -8.6291  -8.6290  -8.5528  -8.5527  -8.4315  -8.4315
    -7.0812  -7.0811  -6.3827  -6.3824  -5.7434  -5.7432  -5.3937  -5.3934
    -4.5817  -4.5814  -4.5591  -4.5588   0.1193   0.1193   1.5630   1.5631
     2.4416   2.4416   2.6144

     occupation numbers 
     1.0000   1.0000   1.0000   1.0000   1.0000   1.0000   1.0000   1.0000
     1.0000   1.0000   1.0000   1.0000   1.0000   1.0000   1.0000   1.0000
     1.0000   1.0000   1.0000   1.0000   1.0000   1.0000   1.0000   1.0000
     1.0000   1.0000   1.0000   1.0000   1.0000   1.0000   1.0000   1.0000
     1.0000   1.0000   1.0000   1.0000   0.0000   0.0000   0.0000   0.0000
     0.0000   0.0000   0.0000

          k = 0.1667 0.2887 0.0000 ( 13801 PWs)   bands (ev):

   -21.4139 -21.0847 -21.0843 -20.9949 -10.0800  -9.9131  -9.8678  -9.8677
    -9.6435  -9.2559  -9.2558  -9.1239  -9.0810  -9.0809  -8.9429  -8.7440
    -8.6925  -8.6561  -8.6560  -8.6157  -8.5942  -8.4936  -8.4935  -8.3814
    -7.5440  -6.9468  -6.9467  -6.2830  -5.8998  -5.4315  -5.4314  -4.7842
    -4.7839  -4.6203  -4.4842  -4.0342  -0.9987   1.0912   1.6425   1.7108
     1.7108   2.2887   2.2887

     occupation numbers 
     1.0000   1.0000   1.0000   1.0000   1.0000   1.0000   1.0000   1.0000
     1.0000   1.0000   1.0000   1.0000   1.0000   1.0000   1.0000   1.0000
     1.0000   1.0000   1.0000   1.0000   1.0000   1.0000   1.0000   1.0000
     1.0000   1.0000   1.0000   1.0000   1.0000   1.0000   1.0000   1.0000
     1.0000   1.0000   1.0000   1.0000   0.0000   0.0000   0.0000   0.0000
     0.0000   0.0000   0.0000

          k = 0.1667 0.4811 0.0000 ( 13791 PWs)   bands (ev):

   -21.3116 -21.1909 -21.1020 -20.9796 -10.0775 -10.0036  -9.8959  -9.7359
    -9.5833  -9.4962  -9.2690  -9.1108  -9.0500  -8.9902  -8.8728  -8.8551
    -8.7206  -8.6686  -8.6395  -8.6263  -8.5676  -8.5295  -8.4980  -8.2510
    -7.4599  -6.8605  -6.6499  -6.2002  -5.6602  -5.5450  -5.3924  -5.1312
    -4.9785  -4.8363  -4.4670  -4.4290  -0.1819   0.7485   1.4151   1.6255
     1.8399   2.1782   2.2166

     occupation numbers 
     1.0000   1.0000   1.0000   1.0000   1.0000   1.0000   1.0000   1.0000
     1.0000   1.0000   1.0000   1.0000   1.0000   1.0000   1.0000   1.0000
     1.0000   1.0000   1.0000   1.0000   1.0000   1.0000   1.0000   1.0000
     1.0000   1.0000   1.0000   1.0000   1.0000   1.0000   1.0000   1.0000
     1.0000   1.0000   1.0000   1.0000   0.0000   0.0000   0.0000   0.0000
     0.0000   0.0000   0.0000

          k = 0.3333 0.5774 0.0000 ( 13815 PWs)   bands (ev):

   -21.2078 -21.2078 -21.2071 -20.9636 -10.0234 -10.0233 -10.0232  -9.5219
    -9.5187  -9.5187  -9.5185  -9.1086  -8.9720  -8.9719  -8.9719  -8.8155
    -8.7335  -8.6499  -8.6498  -8.6498  -8.5369  -8.5368  -8.5368  -8.0105
    -7.4703  -7.3714  -6.0062  -6.0061  -6.0060  -5.1960  -5.1960  -5.1956
    -5.0570  -5.0568  -5.0567  -4.3633   0.6588   0.6588   0.6588   1.7768
     1.7768   1.7769   3.2232

     occupation numbers 
     1.0000   1.0000   1.0000   1.0000   1.0000   1.0000   1.0000   1.0000
     1.0000   1.0000   1.0000   1.0000   1.0000   1.0000   1.0000   1.0000
     1.0000   1.0000   1.0000   1.0000   1.0000   1.0000   1.0000   1.0000
     1.0000   1.0000   1.0000   1.0000   1.0000   1.0000   1.0000   1.0000
     1.0000   1.0000   1.0000   1.0000   0.0000   0.0000   0.0000   0.0000
     0.0000   0.0000   0.0000

     the Fermi energy is    -2.6182 ev

!    total energy              =    -722.39451302 Ry
     estimated scf accuracy    <       0.00000003 Ry
     smearing contrib. (-TS)   =      -0.00000000 Ry
     internal energy E=F+TS    =    -722.39451302 Ry

     The total energy is F=E-TS. E is the sum of the following terms:
     one-electron contribution =   -2958.84874213 Ry
     hartree contribution      =    1532.39415181 Ry
     xc contribution           =    -218.37205966 Ry
     ewald contribution        =     922.47038283 Ry
     DFT-D3 Dispersion         =      -0.03824587 Ry

     convergence has been achieved in  10 iterations

     Writing all to output data dir ./work/zno2.save/

     init_run     :     22.76s CPU     10.65s WALL (       1 calls)
     electrons    :    491.93s CPU    226.08s WALL (       1 calls)

     Called by init_run:
     wfcinit      :     15.11s CPU      7.09s WALL (       1 calls)
     wfcinit:atom :      0.27s CPU      0.07s WALL (       7 calls)
     wfcinit:wfcr :     14.37s CPU      6.73s WALL (       7 calls)
     potinit      :      1.95s CPU      0.67s WALL (       1 calls)
     hinit0       :      2.37s CPU      1.38s WALL (       1 calls)

     Called by electrons:
     c_bands      :    378.51s CPU    180.83s WALL (      10 calls)
     sum_band     :     74.97s CPU     30.25s WALL (      10 calls)
     v_of_rho     :      6.86s CPU      1.89s WALL (      11 calls)
     v_h          :      0.40s CPU      0.10s WALL (      11 calls)
     v_xc         :      6.46s CPU      1.79s WALL (      11 calls)
     newd         :     33.93s CPU     14.22s WALL (      11 calls)
     mix_rho      :      0.91s CPU      0.29s WALL (      10 calls)
     energy_dftd3 :      0.02s CPU      0.02s WALL (       1 calls)

     Called by c_bands:
     init_us_2    :      1.60s CPU      0.56s WALL (     147 calls)
     init_us_2:cp :      1.60s CPU      0.56s WALL (     147 calls)
     cegterg      :    372.68s CPU    179.12s WALL (      70 calls)

     Called by sum_band:
     sum_band:wei :      0.00s CPU      0.00s WALL (      10 calls)
     sum_band:loo :     44.98s CPU     17.23s WALL (      10 calls)
     sum_band:buf :      0.24s CPU      0.12s WALL (      70 calls)
     sum_band:ini :      0.88s CPU      0.27s WALL (      70 calls)
     sum_band:cal :     11.84s CPU      8.40s WALL (      70 calls)
     sum_band:bec :      0.02s CPU      0.02s WALL (      70 calls)
     addusdens    :     29.48s CPU     12.82s WALL (      10 calls)
     addusd:skk   :      0.20s CPU      0.07s WALL (      20 calls)
     addusd:dgemm :      5.28s CPU      6.30s WALL (      20 calls)
     addusd:qvan2 :     21.81s CPU      5.70s WALL (      20 calls)

     Called by *egterg:
     cdiaghg      :      2.11s CPU      1.19s WALL (     443 calls)
     cegterg:over :     25.19s CPU     21.96s WALL (     373 calls)
     cegterg:upda :     24.57s CPU     11.55s WALL (     373 calls)
     cegterg:last :     34.62s CPU     25.57s WALL (     159 calls)
     h_psi        :    254.77s CPU     96.00s WALL (     450 calls)
     s_psi        :     34.87s CPU     20.09s WALL (     450 calls)
     g_psi        :      0.58s CPU      0.28s WALL (     373 calls)

     Called by h_psi:
     h_psi:calbec :     43.30s CPU     25.82s WALL (     450 calls)
     vloc_psi     :    189.69s CPU     50.28s WALL (     450 calls)
     add_vuspsi   :     20.91s CPU     19.50s WALL (     450 calls)

     General routines
     calbec       :     55.14s CPU     34.22s WALL (     520 calls)
     fft          :      3.75s CPU      1.41s WALL (     141 calls)
     ffts         :      0.97s CPU      0.40s WALL (      21 calls)
     fftw         :    186.67s CPU     49.28s WALL (   20786 calls)
     interpolate  :      1.29s CPU      0.47s WALL (      11 calls)


     PWSCF        :   8m35.07s CPU   3m57.00s WALL


   This run was terminated on:  21:36: 3  26Sep2022            

=------------------------------------------------------------------------------=
   JOB DONE.
=------------------------------------------------------------------------------=
