
     Program POST-PROC v.7.0 starts on 26Sep2022 at 21:47:29 

     This program is part of the open-source Quantum ESPRESSO suite
     for quantum simulation of materials; please cite
         "P. Giannozzi et al., J. Phys.:Condens. Matter 21 395502 (2009);
         "P. Giannozzi et al., J. Phys.:Condens. Matter 29 465901 (2017);
         "P. Giannozzi et al., J. Chem. Phys. 152 154105 (2020);
          URL http://www.quantum-espresso.org", 
     in publications or presentations arising from this work. More details at
     http://www.quantum-espresso.org/quote

     Serial multi-threaded version, running on    4 processor cores
     1664 MiB available memory on the printing compute node when the environment starts

     Reading header from file  zno_sic_2.charge
     Reading data from file  zno_sic_2.charge
     Reading data from file  zno2.charge
     Reading data from file  sic2.charge

     Writing data to be plotted to file zno_sic_2_chargediff.cube
     Plot Type: 3D                     Output format: Gaussian cube

     POST-PROC    :      1.32s CPU      1.35s WALL


   This run was terminated on:  21:47:30  26Sep2022            

=------------------------------------------------------------------------------=
   JOB DONE.
=------------------------------------------------------------------------------=
