
     Program POST-PROC v.7.0 starts on 26Sep2022 at 21:31:49 

     This program is part of the open-source Quantum ESPRESSO suite
     for quantum simulation of materials; please cite
         "P. Giannozzi et al., J. Phys.:Condens. Matter 21 395502 (2009);
         "P. Giannozzi et al., J. Phys.:Condens. Matter 29 465901 (2017);
         "P. Giannozzi et al., J. Chem. Phys. 152 154105 (2020);
          URL http://www.quantum-espresso.org", 
     in publications or presentations arising from this work. More details at
     http://www.quantum-espresso.org/quote

     Serial multi-threaded version, running on    4 processor cores
     1586 MiB available memory on the printing compute node when the environment starts


     Reading xml data from directory:

     ./work/zno_sic_1.save/
     file Zn.pbe-dnl-rrkjus_psl.1.0.0.UPF: wavefunction(s)  3D renormalized

     IMPORTANT: XC functional enforced from input :
     Exchange-correlation= PBE
                           (   1   4   3   4   0   0   0)
     Any further DFT definition will be discarded
     Please, verify this is what you really want


     G-vector sticks info
     --------------------
     sticks:   dense  smooth     PW     G-vecs:    dense   smooth      PW
     Sum        2095    1261    361               237585   110555   16557

     Using Slab Decomposition


     Check: negative core charge=   -0.000012

     negative rho (up, down):  6.846E-03 0.000E+00

     Calling punch_plot, plot_num =   0
     Writing data to file  zno_sic_1.charge
     Message from routine chdens:
     output format not set, exiting

     POST-PROC    :      8.71s CPU      4.71s WALL


   This run was terminated on:  21:31:54  26Sep2022            

=------------------------------------------------------------------------------=
   JOB DONE.
=------------------------------------------------------------------------------=
