
     Program PWSCF v.7.0 starts on 26Sep2022 at 21:15:21 

     This program is part of the open-source Quantum ESPRESSO suite
     for quantum simulation of materials; please cite
         "P. Giannozzi et al., J. Phys.:Condens. Matter 21 395502 (2009);
         "P. Giannozzi et al., J. Phys.:Condens. Matter 29 465901 (2017);
         "P. Giannozzi et al., J. Chem. Phys. 152 154105 (2020);
          URL http://www.quantum-espresso.org", 
     in publications or presentations arising from this work. More details at
     http://www.quantum-espresso.org/quote

     Serial multi-threaded version, running on    4 processor cores
     763 MiB available memory on the printing compute node when the environment starts

     Waiting for input...
     Reading input from standard input

     Current dimensions of program PWSCF are:
     Max number of different atomic species (ntypx) = 10
     Max number of k-points (npk) =  40000
     Max angular momentum in pseudopotentials (lmaxx) =  4
     file Zn.pbe-dnl-rrkjus_psl.1.0.0.UPF: wavefunction(s)  3D renormalized

     IMPORTANT: XC functional enforced from input :
     Exchange-correlation= PBE
                           (   1   4   3   4   0   0   0)
     Any further DFT definition will be discarded
     Please, verify this is what you really want


     --------------------------------------------
     DFT-D3 Dispersion Correction (3-body terms):
     --------------------------------------------
       Reference C6 values for interpolation: 

         atom   Coordination number   C6
         C          0.000            98.23
         C          0.987            86.49
         C          1.998            58.72
         C          2.999            51.56
         C          3.984            36.41
         O          0.000            31.01
         O          0.993            25.63
         O          1.989            20.74
         Si         0.000           635.71
         Si         0.951           540.53
         Si         1.944           466.25
         Si         2.941           443.01
         Si         3.868           299.55
         Zn         0.000           681.04
         Zn         1.942           306.91

       Values used:

         atom   Coordination number  R0_AB[au]  C6      C8
         Zn         3.988            3.053    306.91  23930.67
         O          2.929            2.345     20.74    418.58
         Zn         3.988            3.053    306.91  23930.67
         O          2.929            2.345     20.74    418.58
         Zn         3.988            3.053    306.91  23930.67
         O          2.929            2.345     20.74    418.58
         Zn         3.988            3.053    306.91  23930.67
         O          2.929            2.345     20.74    418.58
         Si         3.636            3.583    318.93  22812.04
         C          2.999            2.750     51.35   1485.05
         Si         3.636            3.583    318.93  22812.04
         C          2.999            2.750     51.35   1485.05
         Si         3.636            3.583    318.93  22812.04
         C          2.999            2.750     51.35   1485.05
         Si         3.636            3.583    318.93  22812.04
         C          2.999            2.750     51.35   1485.05

         Molecular C6 ( Ry / a.u.^6 ) =     34844.24

     Found identity + ( -0.0000  0.5000  0.0000) symmetry
     This is a supercell, fractional translations are disabled

     G-vector sticks info
     --------------------
     sticks:   dense  smooth     PW     G-vecs:    dense   smooth      PW
     Sum        2095    1261    361               237585   110555   16557

     Using Slab Decomposition



     bravais-lattice index     =            4
     lattice parameter (alat)  =      12.3286  a.u.
     unit-cell volume          =    4974.9089 (a.u.)^3
     number of atoms/cell      =           16
     number of atomic types    =            4
     number of electrons       =       104.00
     number of Kohn-Sham states=           62
     kinetic-energy cutoff     =      30.0000  Ry
     charge density cutoff     =     200.0000  Ry
     scf convergence threshold =      1.0E-06
     mixing beta               =       0.7000
     number of iterations used =            8  plain     mixing
     Exchange-correlation= PBE
                           (   1   4   3   4   0   0   0)

     celldm(1)=  12.328573  celldm(2)=   0.000000  celldm(3)=   3.065604
     celldm(4)=   0.000000  celldm(5)=   0.000000  celldm(6)=   0.000000

     crystal axes: (cart. coord. in units of alat)
               a(1) = (   1.000000   0.000000   0.000000 )  
               a(2) = (  -0.500000   0.866025   0.000000 )  
               a(3) = (   0.000000   0.000000   3.065604 )  

     reciprocal axes: (cart. coord. in units 2 pi/alat)
               b(1) = (  1.000000  0.577350 -0.000000 )  
               b(2) = (  0.000000  1.154701  0.000000 )  
               b(3) = (  0.000000 -0.000000  0.326200 )  


     PseudoPot. # 1 for Zn read from file:
     ./pseudo/Zn.pbe-dnl-rrkjus_psl.1.0.0.UPF
     MD5 check sum: 7f56cabf9682ed8c977c2f7d0c5985c5
     Pseudo is Ultrasoft + core correction, Zval = 12.0
     Generated using &quot;atomic&quot; code by A. Dal Corso  v.6.2.2
     Using radial grid of 1201 points,  6 beta functions with: 
                l(1) =   0
                l(2) =   0
                l(3) =   1
                l(4) =   1
                l(5) =   2
                l(6) =   2
     Q(r) pseudized with 0 coefficients 


     PseudoPot. # 2 for O  read from file:
     ./pseudo/O.pbe-n-rrkjus_psl.1.0.0.UPF
     MD5 check sum: 91400c9766925bcf19f520983a725ff0
     Pseudo is Ultrasoft + core correction, Zval =  6.0
     Generated using &quot;atomic&quot; code by A. Dal Corso  v.6.3MaX
     Using radial grid of 1095 points,  4 beta functions with: 
                l(1) =   0
                l(2) =   0
                l(3) =   1
                l(4) =   1
     Q(r) pseudized with 0 coefficients 


     PseudoPot. # 3 for Si read from file:
     ./pseudo/Si.pbe-nl-rrkjus_psl.1.0.0.UPF
     MD5 check sum: 78279d3766ecb5dbdc0623f3e93c9a23
     Pseudo is Ultrasoft + core correction, Zval =  4.0
     Generated using &quot;atomic&quot; code by A. Dal Corso  v.6.3
     Using radial grid of 1141 points,  4 beta functions with: 
                l(1) =   0
                l(2) =   0
                l(3) =   1
                l(4) =   1
     Q(r) pseudized with 0 coefficients 


     PseudoPot. # 4 for C  read from file:
     ./pseudo/C.pbe-n-rrkjus_psl.1.0.0.UPF
     MD5 check sum: 1fdd950c42eb37d8afe3dd2f8d12311e
     Pseudo is Ultrasoft + core correction, Zval =  4.0
     Generated using &quot;atomic&quot; code by A. Dal Corso  v.6.3MaX
     Using radial grid of 1073 points,  4 beta functions with: 
                l(1) =   0
                l(2) =   0
                l(3) =   1
                l(4) =   1
     Q(r) pseudized with 0 coefficients 


     atomic species   valence    mass     pseudopotential
        Zn            12.00    65.40900     Zn( 1.00)
        O              6.00    15.99940     O ( 1.00)
        Si             4.00    28.08550     Si( 1.00)
        C              4.00    12.01070     C ( 1.00)

      6 Sym. Ops. (no inversion) found


                                    s                        frac. trans.

      isym =  1     identity                                     

 cryst.   s( 1) = (     1          0          0      )
                  (     0          1          0      )
                  (     0          0          1      )

 cart.    s( 1) = (  1.0000000  0.0000000  0.0000000 )
                  (  0.0000000  1.0000000  0.0000000 )
                  (  0.0000000  0.0000000  1.0000000 )


      isym =  2     120 deg rotation - cryst. axis [0,0,1]       

 cryst.   s( 2) = (     0          1          0      )
                  (    -1         -1          0      )
                  (     0          0          1      )

 cart.    s( 2) = ( -0.5000000 -0.8660254  0.0000000 )
                  (  0.8660254 -0.5000000  0.0000000 )
                  (  0.0000000  0.0000000  1.0000000 )


      isym =  3     120 deg rotation - cryst. axis [0,0,-1]      

 cryst.   s( 3) = (    -1         -1          0      )
                  (     1          0          0      )
                  (     0          0          1      )

 cart.    s( 3) = ( -0.5000000  0.8660254  0.0000000 )
                  ( -0.8660254 -0.5000000  0.0000000 )
                  (  0.0000000  0.0000000  1.0000000 )


      isym =  4     inv. 180 deg rotation - cart. axis [1,0,0]   

 cryst.   s( 4) = (    -1          0          0      )
                  (     1          1          0      )
                  (     0          0          1      )

 cart.    s( 4) = ( -1.0000000  0.0000000  0.0000000 )
                  (  0.0000000  1.0000000  0.0000000 )
                  (  0.0000000  0.0000000  1.0000000 )


      isym =  5     inv. 180 deg rotation - cryst. axis [0,1,0]  

 cryst.   s( 5) = (     1          1          0      )
                  (     0         -1          0      )
                  (     0          0          1      )

 cart.    s( 5) = (  0.5000000  0.8660254  0.0000000 )
                  (  0.8660254 -0.5000000  0.0000000 )
                  (  0.0000000  0.0000000  1.0000000 )


      isym =  6     inv. 180 deg rotation - cryst. axis [1,1,0]  

 cryst.   s( 6) = (     0         -1          0      )
                  (    -1          0          0      )
                  (     0          0          1      )

 cart.    s( 6) = (  0.5000000 -0.8660254  0.0000000 )
                  ( -0.8660254 -0.5000000  0.0000000 )
                  (  0.0000000  0.0000000  1.0000000 )


     point group C_3v (3m)  
     there are  3 classes
     the character table:

       E     2C3   3s_v 
A_1    1.00  1.00  1.00
A_2    1.00  1.00 -1.00
E      2.00 -1.00  0.00

     the symmetry operations in each class and the name of the first element:

     E        1
          identity                                               
     2C3      2    3
          120 deg rotation - cryst. axis [0,0,1]                 
     3s_v     4    5    6
          inv. 180 deg rotation - cart. axis [1,0,0]             

   Cartesian axes

     site n.     atom                  positions (alat units)
         1           Zn  tau(   1) = (   0.0000000   0.0000000   2.0232986  )
         2           O   tau(   2) = (   0.0000000   0.2886751   2.0232986  )
         3           Zn  tau(   3) = (  -0.2500000   0.4330127   2.0232986  )
         4           O   tau(   4) = (  -0.2500000   0.7216878   2.0232986  )
         5           Zn  tau(   5) = (   0.5000000   0.0000000   2.0232986  )
         6           O   tau(   6) = (   0.5000000   0.2886751   2.0232986  )
         7           Zn  tau(   7) = (   0.2500000   0.4330127   2.0232986  )
         8           O   tau(   8) = (   0.2500000   0.7216878   2.0232986  )
         9           Si  tau(   9) = (   0.0000000   0.0000000   1.5328020  )
        10           C   tau(  10) = (   0.0000000   0.2886751   1.5328020  )
        11           Si  tau(  11) = (  -0.2500000   0.4330127   1.5328020  )
        12           C   tau(  12) = (  -0.2500000   0.7216878   1.5328020  )
        13           Si  tau(  13) = (   0.5000000   0.0000000   1.5328020  )
        14           C   tau(  14) = (   0.5000000   0.2886751   1.5328020  )
        15           Si  tau(  15) = (   0.2500000   0.4330127   1.5328020  )
        16           C   tau(  16) = (   0.2500000   0.7216878   1.5328020  )

   Crystallographic axes

     site n.     atom                  positions (cryst. coord.)
         1           Zn  tau(   1) = (  0.0000000  0.0000000  0.6600000  )
         2           O   tau(   2) = (  0.1666667  0.3333333  0.6600000  )
         3           Zn  tau(   3) = ( -0.0000000  0.5000000  0.6600000  )
         4           O   tau(   4) = (  0.1666667  0.8333333  0.6600000  )
         5           Zn  tau(   5) = (  0.5000000  0.0000000  0.6600000  )
         6           O   tau(   6) = (  0.6666667  0.3333333  0.6600000  )
         7           Zn  tau(   7) = (  0.5000000  0.5000000  0.6600000  )
         8           O   tau(   8) = (  0.6666667  0.8333333  0.6600000  )
         9           Si  tau(   9) = (  0.0000000  0.0000000  0.5000000  )
        10           C   tau(  10) = (  0.1666667  0.3333333  0.5000000  )
        11           Si  tau(  11) = ( -0.0000000  0.5000000  0.5000000  )
        12           C   tau(  12) = (  0.1666667  0.8333333  0.5000000  )
        13           Si  tau(  13) = (  0.5000000  0.0000000  0.5000000  )
        14           C   tau(  14) = (  0.6666667  0.3333333  0.5000000  )
        15           Si  tau(  15) = (  0.5000000  0.5000000  0.5000000  )
        16           C   tau(  16) = (  0.6666667  0.8333333  0.5000000  )

     number of k points=     7  Marzari-Vanderbilt smearing, width (Ry)=  0.0050
                       cart. coord. in units 2pi/alat
        k(    1) = (   0.0000000   0.0000000   0.0000000), wk =   0.0555556
        k(    2) = (   0.0000000   0.1924501   0.0000000), wk =   0.3333333
        k(    3) = (   0.0000000   0.3849002   0.0000000), wk =   0.3333333
        k(    4) = (   0.0000000  -0.5773503   0.0000000), wk =   0.1666667
        k(    5) = (   0.1666667   0.2886751   0.0000000), wk =   0.3333333
        k(    6) = (   0.1666667   0.4811252   0.0000000), wk =   0.6666667
        k(    7) = (   0.3333333   0.5773503   0.0000000), wk =   0.1111111

                       cryst. coord.
        k(    1) = (   0.0000000   0.0000000   0.0000000), wk =   0.0555556
        k(    2) = (   0.0000000   0.1666667   0.0000000), wk =   0.3333333
        k(    3) = (   0.0000000   0.3333333   0.0000000), wk =   0.3333333
        k(    4) = (   0.0000000  -0.5000000   0.0000000), wk =   0.1666667
        k(    5) = (   0.1666667   0.1666667   0.0000000), wk =   0.3333333
        k(    6) = (   0.1666667   0.3333333   0.0000000), wk =   0.6666667
        k(    7) = (   0.3333333   0.3333333   0.0000000), wk =   0.1111111

     Dense  grid:   237585 G-vectors     FFT dimensions: (  60,  60, 180)

     Smooth grid:   110555 G-vectors     FFT dimensions: (  45,  45, 135)

     Dynamical RAM for                 wfc:      13.06 MB

     Dynamical RAM for     wfc (w. buffer):     104.47 MB

     Dynamical RAM for           str. fact:      14.50 MB

     Dynamical RAM for           local pot:       0.00 MB

     Dynamical RAM for          nlocal pot:      35.39 MB

     Dynamical RAM for                qrad:       4.54 MB

     Dynamical RAM for          rho,v,vnew:      25.71 MB

     Dynamical RAM for               rhoin:       8.57 MB

     Dynamical RAM for            rho*nmix:      58.00 MB

     Dynamical RAM for           G-vectors:      14.44 MB

     Dynamical RAM for          h,s,v(r/c):       0.70 MB

     Dynamical RAM for          <psi|beta>:       0.16 MB

     Dynamical RAM for                 psi:      26.12 MB

     Dynamical RAM for                hpsi:      26.12 MB

     Dynamical RAM for                spsi:      26.12 MB

     Dynamical RAM for      wfcinit/wfcrot:      35.55 MB

     Dynamical RAM for           addusdens:     688.80 MB

     Estimated static dynamical RAM per process >     250.46 MB

     Estimated max dynamical RAM per process >     997.27 MB

     Check: negative core charge=   -0.000012

     Initial potential from superposition of free atoms

     starting charge     103.9827, renormalised to     104.0000

     negative rho (up, down):  5.817E-03 0.000E+00
     Starting wfcs are   84 randomized atomic wfcs

     total cpu time spent up to now is       21.7 secs

     Self-consistent Calculation

     iteration #  1     ecut=    30.00 Ry     beta= 0.70
     Davidson diagonalization with overlap

---- Real-time Memory Report at c_bands before calling an iterative solver
           804 MiB given to the printing process from OS
             0 MiB allocation reported by mallinfo(arena+hblkhd)
          1109 MiB available memory on the node where the printing process lives
------------------
     ethr =  1.00E-02,  avg # of iterations =  2.9

     negative rho (up, down):  6.429E-03 0.000E+00

     total cpu time spent up to now is       68.7 secs

     total energy              =    -811.11476419 Ry
     estimated scf accuracy    <       3.64772269 Ry

     iteration #  2     ecut=    30.00 Ry     beta= 0.70
     Davidson diagonalization with overlap

---- Real-time Memory Report at c_bands before calling an iterative solver
           969 MiB given to the printing process from OS
             0 MiB allocation reported by mallinfo(arena+hblkhd)
          1325 MiB available memory on the node where the printing process lives
------------------
     ethr =  3.51E-03,  avg # of iterations =  4.7

     negative rho (up, down):  8.946E-03 0.000E+00

     total cpu time spent up to now is      115.8 secs

     total energy              =    -811.77472099 Ry
     estimated scf accuracy    <       4.93135658 Ry

     iteration #  3     ecut=    30.00 Ry     beta= 0.70
     Davidson diagonalization with overlap

---- Real-time Memory Report at c_bands before calling an iterative solver
           973 MiB given to the printing process from OS
             0 MiB allocation reported by mallinfo(arena+hblkhd)
          1331 MiB available memory on the node where the printing process lives
------------------
     ethr =  3.51E-03,  avg # of iterations =  2.9

     negative rho (up, down):  6.365E-03 0.000E+00

     total cpu time spent up to now is      156.2 secs

     total energy              =    -812.63462119 Ry
     estimated scf accuracy    <       0.10906301 Ry

     iteration #  4     ecut=    30.00 Ry     beta= 0.70
     Davidson diagonalization with overlap

---- Real-time Memory Report at c_bands before calling an iterative solver
           976 MiB given to the printing process from OS
             0 MiB allocation reported by mallinfo(arena+hblkhd)
          1331 MiB available memory on the node where the printing process lives
------------------
     ethr =  1.05E-04,  avg # of iterations =  8.9

     negative rho (up, down):  6.445E-03 0.000E+00

     total cpu time spent up to now is      218.9 secs

     total energy              =    -812.72158335 Ry
     estimated scf accuracy    <       0.10560296 Ry

     iteration #  5     ecut=    30.00 Ry     beta= 0.70
     Davidson diagonalization with overlap

---- Real-time Memory Report at c_bands before calling an iterative solver
           979 MiB given to the printing process from OS
             0 MiB allocation reported by mallinfo(arena+hblkhd)
          1330 MiB available memory on the node where the printing process lives
------------------
     ethr =  1.02E-04,  avg # of iterations =  2.0

     negative rho (up, down):  6.749E-03 0.000E+00

     total cpu time spent up to now is      257.5 secs

     total energy              =    -812.72677690 Ry
     estimated scf accuracy    <       0.02254887 Ry

     iteration #  6     ecut=    30.00 Ry     beta= 0.70
     Davidson diagonalization with overlap

---- Real-time Memory Report at c_bands before calling an iterative solver
           983 MiB given to the printing process from OS
             0 MiB allocation reported by mallinfo(arena+hblkhd)
          1316 MiB available memory on the node where the printing process lives
------------------
     ethr =  2.17E-05,  avg # of iterations =  7.9

     negative rho (up, down):  6.743E-03 0.000E+00

     total cpu time spent up to now is      307.1 secs

     total energy              =    -812.73325438 Ry
     estimated scf accuracy    <       0.00418864 Ry

     iteration #  7     ecut=    30.00 Ry     beta= 0.70
     Davidson diagonalization with overlap

---- Real-time Memory Report at c_bands before calling an iterative solver
           987 MiB given to the printing process from OS
             0 MiB allocation reported by mallinfo(arena+hblkhd)
          1361 MiB available memory on the node where the printing process lives
------------------
     ethr =  4.03E-06,  avg # of iterations =  4.4

     negative rho (up, down):  6.843E-03 0.000E+00

     total cpu time spent up to now is      351.5 secs

     total energy              =    -812.73338497 Ry
     estimated scf accuracy    <       0.00065831 Ry

     iteration #  8     ecut=    30.00 Ry     beta= 0.70
     Davidson diagonalization with overlap

---- Real-time Memory Report at c_bands before calling an iterative solver
           990 MiB given to the printing process from OS
             0 MiB allocation reported by mallinfo(arena+hblkhd)
          1377 MiB available memory on the node where the printing process lives
------------------
     ethr =  6.33E-07,  avg # of iterations =  5.1

     negative rho (up, down):  6.844E-03 0.000E+00

     total cpu time spent up to now is      412.4 secs

     total energy              =    -812.73377513 Ry
     estimated scf accuracy    <       0.00066761 Ry

     iteration #  9     ecut=    30.00 Ry     beta= 0.70
     Davidson diagonalization with overlap

---- Real-time Memory Report at c_bands before calling an iterative solver
           993 MiB given to the printing process from OS
             0 MiB allocation reported by mallinfo(arena+hblkhd)
          1377 MiB available memory on the node where the printing process lives
------------------
     ethr =  6.33E-07,  avg # of iterations =  1.9

     negative rho (up, down):  6.842E-03 0.000E+00

     total cpu time spent up to now is      450.5 secs

     total energy              =    -812.73373625 Ry
     estimated scf accuracy    <       0.00019015 Ry

     iteration # 10     ecut=    30.00 Ry     beta= 0.70
     Davidson diagonalization with overlap

---- Real-time Memory Report at c_bands before calling an iterative solver
           996 MiB given to the printing process from OS
             0 MiB allocation reported by mallinfo(arena+hblkhd)
          1377 MiB available memory on the node where the printing process lives
------------------
     ethr =  1.83E-07,  avg # of iterations =  4.3

     negative rho (up, down):  6.843E-03 0.000E+00

     total cpu time spent up to now is      498.7 secs

     total energy              =    -812.73380558 Ry
     estimated scf accuracy    <       0.00001061 Ry

     iteration # 11     ecut=    30.00 Ry     beta= 0.70
     Davidson diagonalization with overlap

---- Real-time Memory Report at c_bands before calling an iterative solver
           996 MiB given to the printing process from OS
             0 MiB allocation reported by mallinfo(arena+hblkhd)
          1367 MiB available memory on the node where the printing process lives
------------------
     ethr =  1.02E-08,  avg # of iterations =  3.7

     negative rho (up, down):  6.841E-03 0.000E+00

     total cpu time spent up to now is      541.5 secs

     total energy              =    -812.73380258 Ry
     estimated scf accuracy    <       0.00001864 Ry

     iteration # 12     ecut=    30.00 Ry     beta= 0.70
     Davidson diagonalization with overlap

---- Real-time Memory Report at c_bands before calling an iterative solver
           996 MiB given to the printing process from OS
             0 MiB allocation reported by mallinfo(arena+hblkhd)
          1374 MiB available memory on the node where the printing process lives
------------------
     ethr =  1.02E-08,  avg # of iterations =  2.0

     negative rho (up, down):  6.844E-03 0.000E+00

     total cpu time spent up to now is      604.9 secs

     total energy              =    -812.73380150 Ry
     estimated scf accuracy    <       0.00000536 Ry

     iteration # 13     ecut=    30.00 Ry     beta= 0.70
     Davidson diagonalization with overlap

---- Real-time Memory Report at c_bands before calling an iterative solver
           997 MiB given to the printing process from OS
             0 MiB allocation reported by mallinfo(arena+hblkhd)
          1445 MiB available memory on the node where the printing process lives
------------------
     ethr =  5.15E-09,  avg # of iterations =  4.0

     negative rho (up, down):  6.846E-03 0.000E+00

     total cpu time spent up to now is      649.6 secs

     End of self-consistent calculation

          k = 0.0000 0.0000 0.0000 ( 13841 PWs)   bands (ev):

   -19.7910 -19.3030 -19.3027 -19.3027 -14.9702 -12.4221 -12.4221 -12.4219
    -9.5501  -9.5500  -9.5500  -8.4069  -8.4069  -8.0850  -8.0850  -8.0850
    -7.5223  -7.5223  -7.5223  -7.4839  -7.4839  -7.4839  -7.1104  -7.0428
    -7.0428  -7.0428  -6.9966  -6.9966  -6.8526  -6.8526  -6.8526  -5.9230
    -5.9230  -5.9230  -5.6656  -4.8047  -4.8046  -4.8046  -4.0034  -3.8589
    -3.8589  -3.8588  -3.3917  -3.3917  -3.1671  -3.1670  -3.1670  -2.1681
    -2.1681  -2.1681  -1.9812  -1.9812  -0.3864   0.1260   0.1260   0.1260
     1.0275   1.0275   1.0275   1.2749   2.4539   2.8858

     occupation numbers 
     1.0000   1.0000   1.0000   1.0000   1.0000   1.0000   1.0000   1.0000
     1.0000   1.0000   1.0000   1.0000   1.0000   1.0000   1.0000   1.0000
     1.0000   1.0000   1.0000   1.0000   1.0000   1.0000   1.0000   1.0000
     1.0000   1.0000   1.0000   1.0000   1.0000   1.0000   1.0000   1.0000
     1.0000   1.0000   1.0000   1.0000   1.0000   1.0000   1.0000   1.0000
     1.0000   1.0000   1.0000   1.0000   1.0000   1.0000   1.0000   1.0000
     1.0000   1.0000   1.0000   1.0000   0.0000   0.0000   0.0000   0.0000
     0.0000   0.0000   0.0000   0.0000   0.0000   0.0000

          k = 0.0000 0.1925 0.0000 ( 13807 PWs)   bands (ev):

   -19.7596 -19.3368 -19.3037 -19.3035 -14.8692 -12.7801 -12.4672 -12.4670
    -9.3641  -9.3640  -9.0359  -8.4095  -8.3583  -8.1589  -8.0832  -8.0831
    -7.5609  -7.5140  -7.5140  -7.4961  -7.4521  -7.4521  -7.0986  -7.0532
    -7.0532  -7.0422  -7.0369  -6.9990  -6.8840  -6.8480  -6.8480  -5.8563
    -5.8563  -5.6430  -5.5428  -5.1783  -5.1782  -4.7300  -4.0313  -4.0312
    -3.9564  -3.8720  -3.7163  -3.5178  -3.4136  -3.1828  -3.1828  -2.4033
    -2.3632  -2.1923  -2.1923  -2.0980   0.0340   0.2756   0.2756   0.6235
     1.1348   1.5270   1.5419   1.5419   2.5815   3.0518

     occupation numbers 
     1.0000   1.0000   1.0000   1.0000   1.0000   1.0000   1.0000   1.0000
     1.0000   1.0000   1.0000   1.0000   1.0000   1.0000   1.0000   1.0000
     1.0000   1.0000   1.0000   1.0000   1.0000   1.0000   1.0000   1.0000
     1.0000   1.0000   1.0000   1.0000   1.0000   1.0000   1.0000   1.0000
     1.0000   1.0000   1.0000   1.0000   1.0000   1.0000   1.0000   1.0000
     1.0000   1.0000   1.0000   1.0000   1.0000   1.0000   1.0000   1.0000
     1.0000   1.0000   1.0000   1.0000   0.0000   0.0000   0.0000   0.0000
     0.0000   0.0000   0.0000   0.0000   0.0000   0.0000

          k = 0.0000 0.3849 0.0000 ( 13794 PWs)   bands (ev):

   -19.6730 -19.4289 -19.3053 -19.3051 -14.5699 -13.4533 -12.5490 -12.5489
    -8.9269  -8.9268  -8.4361  -8.3132  -8.2173  -8.0804  -8.0804  -7.8974
    -7.7698  -7.4870  -7.4870  -7.4284  -7.3993  -7.3992  -7.1876  -7.0761
    -7.0761  -7.0496  -7.0309  -7.0040  -6.9260  -6.8325  -6.8325  -5.9260
    -5.9260  -5.6498  -5.6497  -5.2429  -5.0893  -4.9992  -4.5177  -4.4345
    -4.4344  -3.9720  -3.8287  -3.6719  -3.3431  -3.2122  -3.2122  -3.1188
    -2.8119  -2.4220  -2.2325  -2.2325   0.5885   0.5885   0.7753   1.2459
     1.7852   1.9439   2.6431   2.6432   2.9167   2.9957

     occupation numbers 
     1.0000   1.0000   1.0000   1.0000   1.0000   1.0000   1.0000   1.0000
     1.0000   1.0000   1.0000   1.0000   1.0000   1.0000   1.0000   1.0000
     1.0000   1.0000   1.0000   1.0000   1.0000   1.0000   1.0000   1.0000
     1.0000   1.0000   1.0000   1.0000   1.0000   1.0000   1.0000   1.0000
     1.0000   1.0000   1.0000   1.0000   1.0000   1.0000   1.0000   1.0000
     1.0000   1.0000   1.0000   1.0000   1.0000   1.0000   1.0000   1.0000
     1.0000   1.0000   1.0000   1.0000   0.0000   0.0000   0.0000   0.0000
     0.0000   0.0000   0.0000   0.0000   0.0000   0.0000

          k = 0.0000-0.5774 0.0000 ( 13804 PWs)   bands (ev):

   -19.5524 -19.5522 -19.3062 -19.3060 -14.0861 -14.0859 -12.5867 -12.5865
    -8.6429  -8.6428  -8.4103  -8.4103  -8.0826  -8.0825  -8.0125  -8.0125
    -7.4726  -7.4726  -7.3748  -7.3747  -7.3200  -7.3200  -7.0954  -7.0953
    -7.0215  -7.0214  -7.0190  -7.0190  -6.8253  -6.8253  -6.4963  -6.4962
    -6.3350  -6.3350  -5.4764  -5.4763  -4.7568  -4.7567  -4.7096  -4.7095
    -4.1968  -4.1966  -4.0167  -4.0167  -3.2345  -3.2345  -3.2023  -3.2022
    -2.8753  -2.8752  -2.2571  -2.2571   0.7574   0.7574   1.3280   1.3281
     2.2765   2.2765   2.8414   2.8415   3.2886   3.2886

     occupation numbers 
     1.0000   1.0000   1.0000   1.0000   1.0000   1.0000   1.0000   1.0000
     1.0000   1.0000   1.0000   1.0000   1.0000   1.0000   1.0000   1.0000
     1.0000   1.0000   1.0000   1.0000   1.0000   1.0000   1.0000   1.0000
     1.0000   1.0000   1.0000   1.0000   1.0000   1.0000   1.0000   1.0000
     1.0000   1.0000   1.0000   1.0000   1.0000   1.0000   1.0000   1.0000
     1.0000   1.0000   1.0000   1.0000   1.0000   1.0000   1.0000   1.0000
     1.0000   1.0000   1.0000   1.0000   0.0000   0.0000   0.0000   0.0000
     0.0000   0.0000   0.0000   0.0000   0.0000   0.0000

          k = 0.1667 0.2887 0.0000 ( 13801 PWs)   bands (ev):

   -19.7006 -19.3669 -19.3667 -19.2760 -14.6690 -13.0450 -13.0448 -12.2146
    -9.3758  -8.4999  -8.4998  -8.4314  -8.2654  -8.2065  -8.2065  -7.9941
    -7.6128  -7.6128  -7.5071  -7.4672  -7.4672  -7.3058  -7.1484  -7.0863
    -7.0543  -7.0467  -7.0467  -7.0053  -6.8996  -6.8996  -6.7582  -6.0559
    -5.9401  -5.3538  -5.3538  -5.3204  -5.0077  -5.0076  -4.7233  -4.6093
    -3.7959  -3.7597  -3.7597  -3.7293  -3.6098  -3.6098  -3.0103  -2.8879
    -2.5616  -2.5615  -2.3512  -1.9842   0.1254   0.5925   1.0987   1.0987
     1.7035   1.7035   1.8778   2.6208   2.8198   3.3330

     occupation numbers 
     1.0000   1.0000   1.0000   1.0000   1.0000   1.0000   1.0000   1.0000
     1.0000   1.0000   1.0000   1.0000   1.0000   1.0000   1.0000   1.0000
     1.0000   1.0000   1.0000   1.0000   1.0000   1.0000   1.0000   1.0000
     1.0000   1.0000   1.0000   1.0000   1.0000   1.0000   1.0000   1.0000
     1.0000   1.0000   1.0000   1.0000   1.0000   1.0000   1.0000   1.0000
     1.0000   1.0000   1.0000   1.0000   1.0000   1.0000   1.0000   1.0000
     1.0000   1.0000   1.0000   1.0000   0.0000   0.0000   0.0000   0.0000
     0.0000   0.0000   0.0000   0.0000   0.0000   0.0000

          k = 0.1667 0.4811 0.0000 ( 13791 PWs)   bands (ev):

   -19.5969 -19.4747 -19.3845 -19.2605 -14.2767 -13.7150 -13.1917 -12.0946
    -9.1658  -8.4287  -8.3553  -8.2526  -8.0893  -7.9632  -7.9376  -7.8511
    -7.6253  -7.4936  -7.4374  -7.3890  -7.2826  -7.2708  -7.2231  -7.1275
    -7.0597  -7.0292  -7.0267  -7.0160  -6.9173  -6.9034  -6.7702  -6.6142
    -5.9197  -5.8505  -5.5499  -5.1956  -5.0612  -4.9124  -4.7209  -4.6743
    -4.2483  -4.1348  -3.9886  -3.7435  -3.7209  -3.3034  -3.2964  -2.9570
    -2.9186  -2.7843  -2.6371  -1.8655   0.1432   1.3042   1.4810   1.6663
     2.2915   2.3132   2.6176   2.7832   3.0474   3.5150

     occupation numbers 
     1.0000   1.0000   1.0000   1.0000   1.0000   1.0000   1.0000   1.0000
     1.0000   1.0000   1.0000   1.0000   1.0000   1.0000   1.0000   1.0000
     1.0000   1.0000   1.0000   1.0000   1.0000   1.0000   1.0000   1.0000
     1.0000   1.0000   1.0000   1.0000   1.0000   1.0000   1.0000   1.0000
     1.0000   1.0000   1.0000   1.0000   1.0000   1.0000   1.0000   1.0000
     1.0000   1.0000   1.0000   1.0000   1.0000   1.0000   1.0000   1.0000
     1.0000   1.0000   1.0000   1.0000   0.0000   0.0000   0.0000   0.0000
     0.0000   0.0000   0.0000   0.0000   0.0000   0.0000

          k = 0.3333 0.5774 0.0000 ( 13815 PWs)   bands (ev):

   -19.4917 -19.4914 -19.4914 -19.2443 -13.8046 -13.8046 -13.8044 -11.8978
    -9.2297  -8.3750  -8.3749  -8.3749  -7.8783  -7.8734  -7.8733  -7.8733
    -7.4904  -7.3653  -7.3653  -7.3652  -7.2209  -7.1820  -7.0695  -7.0695
    -7.0695  -7.0480  -7.0347  -7.0347  -7.0347  -6.8031  -6.8031  -6.8031
    -6.3871  -5.7785  -5.7770  -4.9423  -4.9422  -4.9421  -4.6243  -4.6243
    -4.6242  -4.1142  -4.1142  -4.1142  -3.3763  -3.3763  -3.3762  -3.0178
    -3.0177  -3.0177  -2.8058  -1.6542  -0.0669   1.9337   1.9338   1.9338
     2.5994   2.5994   2.5995   2.8449   2.8449   2.8450

     occupation numbers 
     1.0000   1.0000   1.0000   1.0000   1.0000   1.0000   1.0000   1.0000
     1.0000   1.0000   1.0000   1.0000   1.0000   1.0000   1.0000   1.0000
     1.0000   1.0000   1.0000   1.0000   1.0000   1.0000   1.0000   1.0000
     1.0000   1.0000   1.0000   1.0000   1.0000   1.0000   1.0000   1.0000
     1.0000   1.0000   1.0000   1.0000   1.0000   1.0000   1.0000   1.0000
     1.0000   1.0000   1.0000   1.0000   1.0000   1.0000   1.0000   1.0000
     1.0000   1.0000   1.0000   1.0000   0.0000   0.0000   0.0000   0.0000
     0.0000   0.0000   0.0000   0.0000   0.0000   0.0000

     the Fermi energy is    -1.2005 ev

!    total energy              =    -812.73380276 Ry
     estimated scf accuracy    <       0.00000002 Ry
     smearing contrib. (-TS)   =       0.00000000 Ry
     internal energy E=F+TS    =    -812.73380276 Ry

     The total energy is F=E-TS. E is the sum of the following terms:
     one-electron contribution =   -4000.45348819 Ry
     hartree contribution      =    2064.47632181 Ry
     xc contribution           =    -255.95677933 Ry
     ewald contribution        =    1379.31725246 Ry
     DFT-D3 Dispersion         =      -0.11710951 Ry

     convergence has been achieved in  13 iterations

     Writing all to output data dir ./work/zno_sic_1.save/

     init_run     :     40.75s CPU     21.40s WALL (       1 calls)
     electrons    :   1174.74s CPU    627.95s WALL (       1 calls)

     Called by init_run:
     wfcinit      :     30.60s CPU     16.71s WALL (       1 calls)
     wfcinit:atom :      0.44s CPU      0.14s WALL (       7 calls)
     wfcinit:wfcr :     29.57s CPU     16.07s WALL (       7 calls)
     potinit      :      2.35s CPU      0.76s WALL (       1 calls)
     hinit0       :      3.02s CPU      1.85s WALL (       1 calls)

     Called by electrons:
     c_bands      :    933.27s CPU    522.83s WALL (      13 calls)
     sum_band     :    172.05s CPU     76.60s WALL (      13 calls)
     v_of_rho     :      9.74s CPU      2.82s WALL (      14 calls)
     v_h          :      0.57s CPU      0.15s WALL (      14 calls)
     v_xc         :      9.17s CPU      2.67s WALL (      14 calls)
     newd         :     62.47s CPU     26.90s WALL (      14 calls)
     mix_rho      :      1.47s CPU      0.52s WALL (      13 calls)
     energy_dftd3 :      0.14s CPU      0.15s WALL (       1 calls)

     Called by c_bands:
     init_us_2    :      4.43s CPU      1.32s WALL (     189 calls)
     init_us_2:cp :      4.42s CPU      1.32s WALL (     189 calls)
     cegterg      :    921.30s CPU    519.20s WALL (      91 calls)

     Called by sum_band:
     sum_band:wei :      0.00s CPU      0.00s WALL (      13 calls)
     sum_band:loo :    107.97s CPU     48.58s WALL (      13 calls)
     sum_band:buf :      0.56s CPU      0.24s WALL (      91 calls)
     sum_band:ini :      2.36s CPU      0.64s WALL (      91 calls)
     sum_band:cal :     32.18s CPU     27.80s WALL (      91 calls)
     sum_band:bec :      0.26s CPU      0.13s WALL (      91 calls)
     addusdens    :     63.25s CPU     27.71s WALL (      13 calls)
     addusd:skk   :      0.63s CPU      0.21s WALL (      52 calls)
     addusd:dgemm :     11.58s CPU     12.92s WALL (      52 calls)
     addusd:qvan2 :     47.44s CPU     13.23s WALL (      52 calls)

     Called by *egterg:
     cdiaghg      :      3.91s CPU      3.15s WALL (     473 calls)
     cegterg:over :     62.35s CPU     60.69s WALL (     382 calls)
     cegterg:upda :     48.90s CPU     30.68s WALL (     382 calls)
     cegterg:last :     83.05s CPU     71.61s WALL (     201 calls)
     h_psi        :    642.62s CPU    280.82s WALL (     480 calls)
     s_psi        :     81.06s CPU     62.21s WALL (     480 calls)
     g_psi        :      1.15s CPU      0.52s WALL (     382 calls)

     Called by h_psi:
     h_psi:calbec :     99.67s CPU     79.00s WALL (     480 calls)
     vloc_psi     :    478.78s CPU    139.30s WALL (     480 calls)
     add_vuspsi   :     62.12s CPU     61.61s WALL (     480 calls)

     General routines
     calbec       :    131.84s CPU    106.80s WALL (     571 calls)
     fft          :      4.84s CPU      1.74s WALL (     180 calls)
     ffts         :      1.09s CPU      0.42s WALL (      27 calls)
     fftw         :    466.50s CPU    135.30s WALL (   37330 calls)
     interpolate  :      1.50s CPU      0.52s WALL (      14 calls)


     PWSCF        :  20m16.12s CPU  10m49.80s WALL


   This run was terminated on:  21:26:11  26Sep2022            

=------------------------------------------------------------------------------=
   JOB DONE.
=------------------------------------------------------------------------------=
