
     Program PWSCF v.7.0 starts on  4Jan2023 at 23:44:46 

     This program is part of the open-source Quantum ESPRESSO suite
     for quantum simulation of materials; please cite
         "P. Giannozzi et al., J. Phys.:Condens. Matter 21 395502 (2009);
         "P. Giannozzi et al., J. Phys.:Condens. Matter 29 465901 (2017);
         "P. Giannozzi et al., J. Chem. Phys. 152 154105 (2020);
          URL http://www.quantum-espresso.org", 
     in publications or presentations arising from this work. More details at
     http://www.quantum-espresso.org/quote

     Serial multi-threaded version, running on    4 processor cores
     4552 MiB available memory on the printing compute node when the environment starts

     Waiting for input...
     Reading input from standard input

     Current dimensions of program PWSCF are:
     Max number of different atomic species (ntypx) = 10
     Max number of k-points (npk) =  40000
     Max angular momentum in pseudopotentials (lmaxx) =  4

     Atomic positions and unit cell read from directory:
     ./work/graphene.save/


     G-vector sticks info
     --------------------
     sticks:   dense  smooth     PW     G-vecs:    dense   smooth      PW
     Sum         211     169     61                10409     7409    1501

     Using Slab Decomposition



     bravais-lattice index     =            4
     lattice parameter (alat)  =       4.6020  a.u.
     unit-cell volume          =     337.6218 (a.u.)^3
     number of atoms/cell      =            2
     number of atomic types    =            1
     number of electrons       =         8.00
     number of Kohn-Sham states=            8
     kinetic-energy cutoff     =      30.0000  Ry
     charge density cutoff     =     150.0000  Ry
     Exchange-correlation= PBE
                           (   1   4   3   4   0   0   0)

     celldm(1)=   4.602000  celldm(2)=   0.000000  celldm(3)=   4.000000
     celldm(4)=   0.000000  celldm(5)=   0.000000  celldm(6)=   0.000000

     crystal axes: (cart. coord. in units of alat)
               a(1) = (   1.000000   0.000000   0.000000 )  
               a(2) = (  -0.500000   0.866025   0.000000 )  
               a(3) = (   0.000000   0.000000   4.000000 )  

     reciprocal axes: (cart. coord. in units 2 pi/alat)
               b(1) = (  1.000000  0.577350 -0.000000 )  
               b(2) = (  0.000000  1.154701  0.000000 )  
               b(3) = (  0.000000 -0.000000  0.250000 )  


     PseudoPot. # 1 for C  read from file:
     ./pseudo/C.pbe-n-rrkjus_psl.1.0.0.UPF
     MD5 check sum: 1fdd950c42eb37d8afe3dd2f8d12311e
     Pseudo is Ultrasoft + core correction, Zval =  4.0
     Generated using &quot;atomic&quot; code by A. Dal Corso  v.6.3MaX
     Using radial grid of 1073 points,  4 beta functions with: 
                l(1) =   0
                l(2) =   0
                l(3) =   1
                l(4) =   1
     Q(r) pseudized with 0 coefficients 


     atomic species   valence    mass     pseudopotential
        C              4.00    12.01070     C ( 1.00)

     24 Sym. Ops., with inversion, found (12 have fractional translation)



   Cartesian axes

     site n.     atom                  positions (alat units)
         1           C   tau(   1) = (   0.0000000   0.0000000   0.0000000  )
         2           C   tau(   2) = (   0.0000000   0.5773503   0.0000000  )

     number of k points=   127 (tetrahedron method)

     Number of k-points >= 100: set verbosity='high' to print them.

     Dense  grid:    10409 G-vectors     FFT dimensions: (  18,  18,  72)

     Smooth grid:     7409 G-vectors     FFT dimensions: (  18,  18,  72)

     Estimated max dynamical RAM per process >      25.33 MB

     Check: negative core charge=   -0.000047

     The potential is recalculated from file :
     ./work/graphene.save/charge-density


     negative rho (up, down):  1.648E-03 0.000E+00
     Starting wfcs are    8 randomized atomic wfcs

     Band Structure Calculation
     Davidson diagonalization with overlap

     ethr =  1.25E-10,  avg # of iterations = 33.8

     total cpu time spent up to now is       15.2 secs

     End of band structure calculation

     Number of k-points >= 100: set verbosity='high' to print the bands.

     the Fermi energy is    -0.1742 ev
     (compare with:    -0.1740 eV, computed in scf)

     Writing all to output data dir ./work/graphene.save/

     init_run     :      0.65s CPU      0.39s WALL (       1 calls)
     electrons    :     55.84s CPU     14.55s WALL (       1 calls)

     Called by init_run:
     wfcinit      :      0.00s CPU      0.00s WALL (       1 calls)
     potinit      :      0.03s CPU      0.01s WALL (       1 calls)
     hinit0       :      0.59s CPU      0.36s WALL (       1 calls)

     Called by electrons:
     c_bands      :     55.78s CPU     14.54s WALL (       1 calls)
     v_of_rho     :      0.03s CPU      0.01s WALL (       1 calls)
     newd         :      0.02s CPU      0.01s WALL (       1 calls)

     Called by c_bands:
     init_us_2    :      0.06s CPU      0.01s WALL (     127 calls)
     init_us_2:cp :      0.06s CPU      0.01s WALL (     127 calls)
     cegterg      :     52.07s CPU     13.58s WALL (     282 calls)

     Called by *egterg:
     cdiaghg      :      1.62s CPU      0.37s WALL (    4424 calls)
     h_psi        :     40.13s CPU     10.65s WALL (    4706 calls)
     s_psi        :      1.86s CPU      0.43s WALL (    4706 calls)
     g_psi        :      0.20s CPU      0.06s WALL (    4297 calls)

     Called by h_psi:
     h_psi:calbec :      2.94s CPU      0.80s WALL (    4706 calls)
     vloc_psi     :     35.14s CPU      9.35s WALL (    4706 calls)
     add_vuspsi   :      1.88s CPU      0.47s WALL (    4706 calls)

     General routines
     calbec       :      2.90s CPU      0.79s WALL (    4706 calls)
     fft          :      0.42s CPU      0.27s WALL (      13 calls)
     ffts         :      0.00s CPU      0.00s WALL (       1 calls)
     fftw         :     32.75s CPU      8.71s WALL (   40668 calls)
     interpolate  :      0.00s CPU      0.00s WALL (       1 calls)


     PWSCF        :     56.81s CPU     15.21s WALL


   This run was terminated on:  23:45: 1   4Jan2023            

=------------------------------------------------------------------------------=
   JOB DONE.
=------------------------------------------------------------------------------=
