
     Program PWSCF v.6.8 starts on  8Aug2021 at 12:51:29 

     This program is part of the open-source Quantum ESPRESSO suite
     for quantum simulation of materials; please cite
         "P. Giannozzi et al., J. Phys.:Condens. Matter 21 395502 (2009);
         "P. Giannozzi et al., J. Phys.:Condens. Matter 29 465901 (2017);
         "P. Giannozzi et al., J. Chem. Phys. 152 154105 (2020);
          URL http://www.quantum-espresso.org", 
     in publications or presentations arising from this work. More details at
     http://www.quantum-espresso.org/quote

     Serial version
     5374 MiB available memory on the printing compute node when the environment starts

     Waiting for input...
     Reading input from standard input

     Current dimensions of program PWSCF are:
     Max number of different atomic species (ntypx) = 10
     Max number of k-points (npk) =  40000
     Max angular momentum in pseudopotentials (lmaxx) =  4

     IMPORTANT: XC functional enforced from input :
     Exchange-correlation= PBE
                           (   1   4   3   4   0   0   0)
     Any further DFT definition will be discarded
     Please, verify this is what you really want


     --------------------------------------------
     DFT-D3 Dispersion Correction (3-body terms):
     --------------------------------------------
       Reference C6 values for interpolation: 

         atom   Coordination number   C6
         C          0.000            98.23
         C          0.987            86.49
         C          1.998            58.72
         C          2.999            51.56
         C          3.984            36.41
         Si         0.000           635.71
         Si         0.951           540.53
         Si         1.944           466.25
         Si         2.941           443.01
         Si         3.868           299.55
         Ge         0.000           727.09
         Ge         0.943           633.70
         Ge         1.945           573.31
         Ge         2.919           459.90
         Ge         3.897           360.58

       Values used:

         atom   Coordination number  R0_AB[au]  C6      C8
         C          2.993            2.750     51.37   1485.71
         Ge         3.729            3.649    367.50  33847.75
         C          2.993            2.750     51.37   1485.71
         Ge         3.729            3.649    367.50  33847.75
         C          2.993            2.750     51.37   1485.71
         Ge         3.729            3.649    367.50  33847.75
         C          2.993            2.750     51.37   1485.71
         Ge         3.729            3.649    367.50  33847.75
         C          2.967            2.750     51.46   1488.29
         Si         3.375            3.583    374.42  26781.27
         C          2.967            2.750     51.46   1488.29
         Si         3.375            3.583    374.42  26781.27
         C          2.967            2.750     51.46   1488.29
         Si         3.375            3.583    374.42  26781.27
         C          2.967            2.750     51.46   1488.29
         Si         3.375            3.583    374.42  26781.27

         Molecular C6 ( Ry / a.u.^6 ) =     44341.84

     Found symmetry operation: I + (  0.0000 -0.5000  0.0000)
     This is a supercell, fractional translations are disabled

     G-vector sticks info
     --------------------
     sticks:   dense  smooth     PW     G-vecs:    dense   smooth      PW
     Sum        2161    1735    475               306453   219461   31871

     Using Slab Decomposition



     bravais-lattice index     =            4
     lattice parameter (alat)  =      12.5250  a.u.
     unit-cell volume          =    6418.4032 (a.u.)^3
     number of atoms/cell      =           16
     number of atomic types    =            3
     number of electrons       =        64.00
     number of Kohn-Sham states=           38
     kinetic-energy cutoff     =      40.0000  Ry
     charge density cutoff     =     200.0000  Ry
     scf convergence threshold =      1.0E-06
     mixing beta               =       0.7000
     number of iterations used =            8  plain     mixing
     Exchange-correlation= PBE
                           (   1   4   3   4   0   0   0)

     celldm(1)=  12.525029  celldm(2)=   0.000000  celldm(3)=   3.771900
     celldm(4)=   0.000000  celldm(5)=   0.000000  celldm(6)=   0.000000

     crystal axes: (cart. coord. in units of alat)
               a(1) = (   1.000000   0.000000   0.000000 )  
               a(2) = (  -0.500000   0.866025   0.000000 )  
               a(3) = (   0.000000   0.000000   3.771900 )  

     reciprocal axes: (cart. coord. in units 2 pi/alat)
               b(1) = (  1.000000  0.577350 -0.000000 )  
               b(2) = (  0.000000  1.154701  0.000000 )  
               b(3) = (  0.000000 -0.000000  0.265118 )  


     PseudoPot. # 1 for C  read from file:
     ./pseudo/C.pbe-n-rrkjus_psl.1.0.0.UPF
     MD5 check sum: 1fdd950c42eb37d8afe3dd2f8d12311e
     Pseudo is Ultrasoft + core correction, Zval =  4.0
     Generated using &quot;atomic&quot; code by A. Dal Corso  v.6.3MaX
     Using radial grid of 1073 points,  4 beta functions with: 
                l(1) =   0
                l(2) =   0
                l(3) =   1
                l(4) =   1
     Q(r) pseudized with 0 coefficients 


     PseudoPot. # 2 for Ge read from file:
     ./pseudo/Ge.pbe-n-rrkjus_psl.1.0.0.UPF
     MD5 check sum: a23a7f3f7456476e534e54484b27d8e8
     Pseudo is Ultrasoft + core correction, Zval =  4.0
     Generated using &quot;atomic&quot; code by A. Dal Corso  v.6.3
     Using radial grid of 1207 points,  4 beta functions with: 
                l(1) =   0
                l(2) =   0
                l(3) =   1
                l(4) =   1
     Q(r) pseudized with 0 coefficients 


     PseudoPot. # 3 for Si read from file:
     ./pseudo/Si.pbe-n-rrkjus_psl.1.0.0.UPF
     MD5 check sum: fa25574f73a70a4139f2adfbefec430c
     Pseudo is Ultrasoft + core correction, Zval =  4.0
     Generated using &quot;atomic&quot; code by A. Dal Corso  v.6.3
     Using radial grid of 1141 points,  6 beta functions with: 
                l(1) =   0
                l(2) =   0
                l(3) =   1
                l(4) =   1
                l(5) =   2
                l(6) =   2
     Q(r) pseudized with 0 coefficients 


     atomic species   valence    mass     pseudopotential
        C              4.00    12.01070     C ( 1.00)
        Ge             4.00    72.64000     Ge( 1.00)
        Si             4.00    28.08550     Si( 1.00)

      6 Sym. Ops. (no inversion) found


                                    s                        frac. trans.

      isym =  1     identity                                     

 cryst.   s( 1) = (     1          0          0      )
                  (     0          1          0      )
                  (     0          0          1      )

 cart.    s( 1) = (  1.0000000  0.0000000  0.0000000 )
                  (  0.0000000  1.0000000  0.0000000 )
                  (  0.0000000  0.0000000  1.0000000 )


      isym =  2     120 deg rotation - cryst. axis [0,0,1]       

 cryst.   s( 2) = (     0          1          0      )
                  (    -1         -1          0      )
                  (     0          0          1      )

 cart.    s( 2) = ( -0.5000000 -0.8660254  0.0000000 )
                  (  0.8660254 -0.5000000  0.0000000 )
                  (  0.0000000  0.0000000  1.0000000 )


      isym =  3     120 deg rotation - cryst. axis [0,0,-1]      

 cryst.   s( 3) = (    -1         -1          0      )
                  (     1          0          0      )
                  (     0          0          1      )

 cart.    s( 3) = ( -0.5000000  0.8660254  0.0000000 )
                  ( -0.8660254 -0.5000000  0.0000000 )
                  (  0.0000000  0.0000000  1.0000000 )


      isym =  4     inv. 180 deg rotation - cart. axis [1,0,0]   

 cryst.   s( 4) = (    -1          0          0      )
                  (     1          1          0      )
                  (     0          0          1      )

 cart.    s( 4) = ( -1.0000000  0.0000000  0.0000000 )
                  (  0.0000000  1.0000000  0.0000000 )
                  (  0.0000000  0.0000000  1.0000000 )


      isym =  5     inv. 180 deg rotation - cryst. axis [0,1,0]  

 cryst.   s( 5) = (     1          1          0      )
                  (     0         -1          0      )
                  (     0          0          1      )

 cart.    s( 5) = (  0.5000000  0.8660254  0.0000000 )
                  (  0.8660254 -0.5000000  0.0000000 )
                  (  0.0000000  0.0000000  1.0000000 )


      isym =  6     inv. 180 deg rotation - cryst. axis [1,1,0]  

 cryst.   s( 6) = (     0         -1          0      )
                  (    -1          0          0      )
                  (     0          0          1      )

 cart.    s( 6) = (  0.5000000 -0.8660254  0.0000000 )
                  ( -0.8660254 -0.5000000  0.0000000 )
                  (  0.0000000  0.0000000  1.0000000 )


     point group C_3v (3m)  
     there are  3 classes
     the character table:

       E     2C3   3s_v 
A_1    1.00  1.00  1.00
A_2    1.00  1.00 -1.00
E      2.00 -1.00  0.00

     the symmetry operations in each class and the name of the first element:

     E        1
          identity                                               
     2C3      2    3
          120 deg rotation - cryst. axis [0,0,1]                 
     3s_v     4    5    6
          inv. 180 deg rotation - cart. axis [1,0,0]             

   Cartesian axes

     site n.     atom                  positions (alat units)
         1           C   tau(   1) = (   0.0000000   0.0000000   2.1702231  )
         2           Ge  tau(   2) = (   0.0000000   0.2886751   2.1702231  )
         3           C   tau(   3) = (  -0.2500000   0.4330127   2.1702231  )
         4           Ge  tau(   4) = (  -0.2500000   0.7216878   2.1702231  )
         5           C   tau(   5) = (   0.5000000   0.0000000   2.1702231  )
         6           Ge  tau(   6) = (   0.5000000   0.2886751   2.1702231  )
         7           C   tau(   7) = (   0.2500000   0.4330127   2.1702231  )
         8           Ge  tau(   8) = (   0.2500000   0.7216878   2.1702231  )
         9           C   tau(   9) = (   0.2500000   0.4330127   1.5087599  )
        10           Si  tau(  10) = (   0.2500000   0.7216878   1.5087599  )
        11           C   tau(  11) = (   0.0000000   0.0000000   1.5087599  )
        12           Si  tau(  12) = (   0.0000000   0.2886751   1.5087599  )
        13           C   tau(  13) = (  -0.2500000   0.4330127   1.5087599  )
        14           Si  tau(  14) = (  -0.2500000   0.7216878   1.5087599  )
        15           C   tau(  15) = (   0.5000000   0.0000000   1.5087599  )
        16           Si  tau(  16) = (   0.5000000   0.2886751   1.5087599  )

   Crystallographic axes

     site n.     atom                  positions (cryst. coord.)
         1           C   tau(   1) = (  0.0000000  0.0000000  0.5753661  )
         2           Ge  tau(   2) = (  0.1666667  0.3333333  0.5753661  )
         3           C   tau(   3) = (  0.0000000  0.5000000  0.5753661  )
         4           Ge  tau(   4) = (  0.1666667  0.8333333  0.5753661  )
         5           C   tau(   5) = (  0.5000000  0.0000000  0.5753661  )
         6           Ge  tau(   6) = (  0.6666667  0.3333333  0.5753661  )
         7           C   tau(   7) = (  0.5000000  0.5000000  0.5753661  )
         8           Ge  tau(   8) = (  0.6666667  0.8333333  0.5753661  )
         9           C   tau(   9) = (  0.5000000  0.5000000  0.4000000  )
        10           Si  tau(  10) = (  0.6666667  0.8333333  0.4000000  )
        11           C   tau(  11) = (  0.0000000  0.0000000  0.4000000  )
        12           Si  tau(  12) = (  0.1666667  0.3333333  0.4000000  )
        13           C   tau(  13) = (  0.0000000  0.5000000  0.4000000  )
        14           Si  tau(  14) = (  0.1666667  0.8333333  0.4000000  )
        15           C   tau(  15) = (  0.5000000  0.0000000  0.4000000  )
        16           Si  tau(  16) = (  0.6666667  0.3333333  0.4000000  )

     number of k points=     7  Marzari-Vanderbilt smearing, width (Ry)=  0.0500
                       cart. coord. in units 2pi/alat
        k(    1) = (   0.0000000   0.0000000   0.0000000), wk =   0.0555556
        k(    2) = (   0.0000000   0.1924501   0.0000000), wk =   0.3333333
        k(    3) = (   0.0000000   0.3849002   0.0000000), wk =   0.3333333
        k(    4) = (   0.0000000  -0.5773503   0.0000000), wk =   0.1666667
        k(    5) = (   0.1666667   0.2886751   0.0000000), wk =   0.3333333
        k(    6) = (   0.1666667   0.4811252   0.0000000), wk =   0.6666667
        k(    7) = (   0.3333333   0.5773503   0.0000000), wk =   0.1111111

                       cryst. coord.
        k(    1) = (   0.0000000   0.0000000   0.0000000), wk =   0.0555556
        k(    2) = (   0.0000000   0.1666667   0.0000000), wk =   0.3333333
        k(    3) = (   0.0000000   0.3333333   0.0000000), wk =   0.3333333
        k(    4) = (   0.0000000  -0.5000000   0.0000000), wk =   0.1666667
        k(    5) = (   0.1666667   0.1666667   0.0000000), wk =   0.3333333
        k(    6) = (   0.1666667   0.3333333   0.0000000), wk =   0.6666667
        k(    7) = (   0.3333333   0.3333333   0.0000000), wk =   0.1111111

     Dense  grid:   306453 G-vectors     FFT dimensions: (  60,  60, 216)

     Smooth grid:   219461 G-vectors     FFT dimensions: (  54,  54, 192)

     Dynamical RAM for                 wfc:      15.90 MB

     Dynamical RAM for     wfc (w. buffer):     127.19 MB

     Dynamical RAM for           str. fact:      14.03 MB

     Dynamical RAM for           local pot:       0.00 MB

     Dynamical RAM for          nlocal pot:      70.29 MB

     Dynamical RAM for                qrad:       3.41 MB

     Dynamical RAM for          rho,v,vnew:      31.83 MB

     Dynamical RAM for               rhoin:      10.61 MB

     Dynamical RAM for            rho*nmix:      74.82 MB

     Dynamical RAM for           G-vectors:      19.21 MB

     Dynamical RAM for          h,s,v(r/c):       0.26 MB

     Dynamical RAM for          <psi|beta>:       0.10 MB

     Dynamical RAM for                 psi:      31.80 MB

     Dynamical RAM for                hpsi:      31.80 MB

     Dynamical RAM for                spsi:      31.80 MB

     Dynamical RAM for      wfcinit/wfcrot:      53.65 MB

     Dynamical RAM for           addusdens:     907.16 MB

     Estimated static dynamical RAM per process >     324.93 MB

     Estimated max dynamical RAM per process >       1.28 GB

     Check: negative core charge=   -0.000010

     Initial potential from superposition of free atoms

     starting charge   63.99436, renormalised to   64.00000

     negative rho (up, down):  4.648E-04 0.000E+00
     Starting wfcs are   64 randomized atomic wfcs

     total cpu time spent up to now is       24.0 secs

     Self-consistent Calculation

     iteration #  1     ecut=    40.00 Ry     beta= 0.70
     Davidson diagonalization with overlap

---- Real-time Memory Report at c_bands before calling an iterative solver
          1020 MiB given to the printing process from OS
             0 MiB allocation reported by mallinfo(arena+hblkhd)
          5052 MiB available memory on the node where the printing process lives
------------------
     ethr =  1.00E-02,  avg # of iterations =  2.0

     negative rho (up, down):  6.626E-04 0.000E+00

     total cpu time spent up to now is       71.4 secs

     WARNING: integrated charge=    64.00113189, expected=    64.00000000

     total energy              =    -189.51276172 Ry
     estimated scf accuracy    <       4.32250817 Ry

     iteration #  2     ecut=    40.00 Ry     beta= 0.70
     Davidson diagonalization with overlap

---- Real-time Memory Report at c_bands before calling an iterative solver
          1315 MiB given to the printing process from OS
             0 MiB allocation reported by mallinfo(arena+hblkhd)
          4943 MiB available memory on the node where the printing process lives
------------------
     ethr =  6.75E-03,  avg # of iterations =  3.7

     negative rho (up, down):  8.145E-04 0.000E+00

     total cpu time spent up to now is      148.1 secs

     WARNING: integrated charge=    64.00074407, expected=    64.00000000

     total energy              =    -190.70268931 Ry
     estimated scf accuracy    <       4.69395458 Ry

     iteration #  3     ecut=    40.00 Ry     beta= 0.70
     Davidson diagonalization with overlap

---- Real-time Memory Report at c_bands before calling an iterative solver
          1322 MiB given to the printing process from OS
             0 MiB allocation reported by mallinfo(arena+hblkhd)
          3814 MiB available memory on the node where the printing process lives
------------------
     ethr =  6.75E-03,  avg # of iterations =  2.0
     Minimization algorithm failed to find Fermi energy: reverting to bisection
     Possible cause: smearing is larger than the electronic band-gap.

     negative rho (up, down):  5.181E-04 0.000E+00

     total cpu time spent up to now is      235.3 secs

     WARNING: integrated charge=    64.00009338, expected=    64.00000000

     total energy              =    -191.33276344 Ry
     estimated scf accuracy    <       0.08176388 Ry

     iteration #  4     ecut=    40.00 Ry     beta= 0.70
     Davidson diagonalization with overlap

---- Real-time Memory Report at c_bands before calling an iterative solver
          1329 MiB given to the printing process from OS
             0 MiB allocation reported by mallinfo(arena+hblkhd)
          2518 MiB available memory on the node where the printing process lives
------------------
     ethr =  1.28E-04,  avg # of iterations =  9.9
     Minimization algorithm failed to find Fermi energy: reverting to bisection
     Possible cause: smearing is larger than the electronic band-gap.

     negative rho (up, down):  6.072E-04 0.000E+00

     total cpu time spent up to now is      379.6 secs

     WARNING: integrated charge=    64.00000993, expected=    64.00000000

     total energy              =    -191.42045402 Ry
     estimated scf accuracy    <       0.12377001 Ry

     iteration #  5     ecut=    40.00 Ry     beta= 0.70
     Davidson diagonalization with overlap

---- Real-time Memory Report at c_bands before calling an iterative solver
          1336 MiB given to the printing process from OS
             0 MiB allocation reported by mallinfo(arena+hblkhd)
          2025 MiB available memory on the node where the printing process lives
------------------
     ethr =  1.28E-04,  avg # of iterations =  4.9
     Minimization algorithm failed to find Fermi energy: reverting to bisection
     Possible cause: smearing is larger than the electronic band-gap.

     negative rho (up, down):  6.981E-04 0.000E+00

     total cpu time spent up to now is      438.0 secs

     WARNING: integrated charge=    64.00004858, expected=    64.00000000

     total energy              =    -191.40720825 Ry
     estimated scf accuracy    <       0.05434032 Ry

     iteration #  6     ecut=    40.00 Ry     beta= 0.70
     Davidson diagonalization with overlap

---- Real-time Memory Report at c_bands before calling an iterative solver
          1342 MiB given to the printing process from OS
             0 MiB allocation reported by mallinfo(arena+hblkhd)
          1963 MiB available memory on the node where the printing process lives
------------------
     ethr =  8.49E-05,  avg # of iterations =  2.0
     Minimization algorithm failed to find Fermi energy: reverting to bisection
     Possible cause: smearing is larger than the electronic band-gap.

     negative rho (up, down):  6.890E-04 0.000E+00

     total cpu time spent up to now is      483.5 secs

     WARNING: integrated charge=    64.00003353, expected=    64.00000000

     total energy              =    -191.41672816 Ry
     estimated scf accuracy    <       0.00355509 Ry

     iteration #  7     ecut=    40.00 Ry     beta= 0.70
     Davidson diagonalization with overlap

---- Real-time Memory Report at c_bands before calling an iterative solver
          1349 MiB given to the printing process from OS
             0 MiB allocation reported by mallinfo(arena+hblkhd)
          2047 MiB available memory on the node where the printing process lives
------------------
     c_bands:  1 eigenvalues not converged
     ethr =  5.55E-06,  avg # of iterations = 11.6
     Minimization algorithm failed to find Fermi energy: reverting to bisection
     Possible cause: smearing is larger than the electronic band-gap.

     negative rho (up, down):  7.131E-04 0.000E+00

     total cpu time spent up to now is      539.1 secs

     total energy              =    -191.41753987 Ry
     estimated scf accuracy    <       0.00054028 Ry

     iteration #  8     ecut=    40.00 Ry     beta= 0.70
     Davidson diagonalization with overlap

---- Real-time Memory Report at c_bands before calling an iterative solver
          1356 MiB given to the printing process from OS
             0 MiB allocation reported by mallinfo(arena+hblkhd)
          2071 MiB available memory on the node where the printing process lives
------------------
     c_bands:  1 eigenvalues not converged
     ethr =  8.44E-07,  avg # of iterations =  8.4
     Minimization algorithm failed to find Fermi energy: reverting to bisection
     Possible cause: smearing is larger than the electronic band-gap.

     negative rho (up, down):  7.107E-04 0.000E+00

     total cpu time spent up to now is      586.1 secs

     total energy              =    -191.41751901 Ry
     estimated scf accuracy    <       0.00058666 Ry

     iteration #  9     ecut=    40.00 Ry     beta= 0.70
     Davidson diagonalization with overlap

---- Real-time Memory Report at c_bands before calling an iterative solver
          1362 MiB given to the printing process from OS
             0 MiB allocation reported by mallinfo(arena+hblkhd)
          2120 MiB available memory on the node where the printing process lives
------------------
     ethr =  8.44E-07,  avg # of iterations =  3.1
     Minimization algorithm failed to find Fermi energy: reverting to bisection
     Possible cause: smearing is larger than the electronic band-gap.

     negative rho (up, down):  7.074E-04 0.000E+00

     total cpu time spent up to now is      625.8 secs

     total energy              =    -191.41748002 Ry
     estimated scf accuracy    <       0.00017159 Ry

     iteration # 10     ecut=    40.00 Ry     beta= 0.70
     Davidson diagonalization with overlap

---- Real-time Memory Report at c_bands before calling an iterative solver
          1369 MiB given to the printing process from OS
             0 MiB allocation reported by mallinfo(arena+hblkhd)
          2092 MiB available memory on the node where the printing process lives
------------------
     ethr =  2.68E-07,  avg # of iterations =  2.3
     Minimization algorithm failed to find Fermi energy: reverting to bisection
     Possible cause: smearing is larger than the electronic band-gap.

     negative rho (up, down):  7.089E-04 0.000E+00

     total cpu time spent up to now is      669.0 secs

     total energy              =    -191.41751015 Ry
     estimated scf accuracy    <       0.00000737 Ry

     iteration # 11     ecut=    40.00 Ry     beta= 0.70
     Davidson diagonalization with overlap

---- Real-time Memory Report at c_bands before calling an iterative solver
          1369 MiB given to the printing process from OS
             0 MiB allocation reported by mallinfo(arena+hblkhd)
          2179 MiB available memory on the node where the printing process lives
------------------
     ethr =  1.15E-08,  avg # of iterations =  4.6
     Minimization algorithm failed to find Fermi energy: reverting to bisection
     Possible cause: smearing is larger than the electronic band-gap.

     negative rho (up, down):  7.114E-04 0.000E+00

     total cpu time spent up to now is      726.4 secs

     total energy              =    -191.41751200 Ry
     estimated scf accuracy    <       0.00000517 Ry

     iteration # 12     ecut=    40.00 Ry     beta= 0.70
     Davidson diagonalization with overlap

---- Real-time Memory Report at c_bands before calling an iterative solver
          1369 MiB given to the printing process from OS
             0 MiB allocation reported by mallinfo(arena+hblkhd)
          1961 MiB available memory on the node where the printing process lives
------------------
     ethr =  8.08E-09,  avg # of iterations =  2.0
     Minimization algorithm failed to find Fermi energy: reverting to bisection
     Possible cause: smearing is larger than the electronic band-gap.

     negative rho (up, down):  7.119E-04 0.000E+00

     total cpu time spent up to now is      763.6 secs

     End of self-consistent calculation

          k = 0.0000 0.0000 0.0000 ( 27479 PWs)   bands (ev):

   -15.9998 -15.2649 -13.2105 -13.2102 -13.2102 -12.8287 -12.8287 -12.8287
   -10.7612 -10.7612 -10.7612  -9.9398  -9.9398  -9.9398  -5.9732  -5.4037
    -5.4037  -5.4035  -5.3987  -5.3031  -5.3031  -5.3031  -3.9406  -3.9406
    -3.6194  -3.6194  -3.1782  -3.1781  -3.1781  -2.8255  -2.8253  -2.8253
    -0.4952  -0.4951  -0.4951  -0.3656   0.1960   0.1962

     occupation numbers 
     1.0000   1.0000   1.0000   1.0000   1.0000   1.0000   1.0000   1.0000
     1.0000   1.0000   1.0000   1.0000   1.0000   1.0000   1.0000   1.0000
     1.0000   1.0000   1.0000   1.0000   1.0000   1.0000   1.0070   1.0070
     1.0297   1.0297   1.0819   1.0819   1.0819   1.0188   1.0188   1.0188
     0.0000   0.0000   0.0000   0.0000   0.0000   0.0000

          k = 0.0000 0.1925 0.0000 ( 27436 PWs)   bands (ev):

   -15.8958 -15.1674 -13.6491 -13.2716 -13.2713 -13.1649 -12.8691 -12.8691
   -10.5618 -10.5618 -10.1423  -9.7669  -9.7669  -9.4491  -5.8646  -5.8023
    -5.8022  -5.6626  -5.6626  -5.3130  -5.2961  -5.2318  -4.4790  -4.3175
    -4.0622  -3.7843  -3.5865  -3.2262  -3.2261  -3.1773  -2.8607  -2.8605
    -0.3436  -0.3436  -0.0034   0.0343   0.3275   0.3276

     occupation numbers 
     1.0000   1.0000   1.0000   1.0000   1.0000   1.0000   1.0000   1.0000
     1.0000   1.0000   1.0000   1.0000   1.0000   1.0000   1.0000   1.0000
     1.0000   1.0000   1.0000   1.0000   1.0000   1.0000   1.0002   1.0007
     1.0036   1.0151   1.0334   1.0787   1.0787   1.0820   1.0345   1.0345
     0.0000   0.0000   0.0000   0.0000   0.0000   0.0000

          k = 0.0000 0.3849 0.0000 ( 27422 PWs)   bands (ev):

   -15.5861 -14.8788 -14.4042 -13.8059 -13.3787 -13.3785 -12.9432 -12.9431
   -10.1153 -10.1153  -9.3625  -9.3624  -8.8575  -8.3551  -6.5693  -6.5692
    -6.3700  -6.3700  -5.7599  -5.6705  -5.5303  -5.0527  -5.0252  -4.9874
    -4.3631  -4.3294  -4.1853  -3.8530  -3.3135  -3.3134  -2.9267  -2.9265
    -0.0235  -0.0235   0.5353   0.5870   0.5871   0.6141

     occupation numbers 
     1.0000   1.0000   1.0000   1.0000   1.0000   1.0000   1.0000   1.0000
     1.0000   1.0000   1.0000   1.0000   1.0000   1.0000   1.0000   1.0000
     1.0000   1.0000   1.0000   1.0000   1.0000   1.0000   1.0000   1.0000
     1.0005   1.0006   1.0017   1.0109   1.0694   1.0694   1.0575   1.0574
     0.0000   0.0000   0.0000   0.0000   0.0000   0.0000

          k = 0.0000-0.5774 0.0000 ( 27446 PWs)   bands (ev):

   -15.0802 -15.0801 -14.4129 -14.4129 -13.4265 -13.4263 -12.9774 -12.9774
    -9.8444  -9.8444  -9.1038  -9.1038  -7.3386  -7.3385  -7.0321  -7.0321
    -6.9748  -6.9747  -6.7562  -6.7562  -5.0165  -5.0164  -4.7191  -4.7191
    -4.6498  -4.6495  -4.4952  -4.4951  -3.3535  -3.3534  -2.9576  -2.9575
     0.1505   0.1505   0.7249   0.7249   0.7676   0.7676

     occupation numbers 
     1.0000   1.0000   1.0000   1.0000   1.0000   1.0000   1.0000   1.0000
     1.0000   1.0000   1.0000   1.0000   1.0000   1.0000   1.0000   1.0000
     1.0000   1.0000   1.0000   1.0000   1.0000   1.0000   1.0000   1.0000
     1.0001   1.0001   1.0002   1.0002   1.0642   1.0643   1.0655   1.0655
     0.0000   0.0000   0.0000   0.0000   0.0000   0.0000

          k = 0.1667 0.2887 0.0000 ( 27463 PWs)   bands (ev):

   -15.6889 -14.9743 -13.9537 -13.9534 -13.4156 -13.4155 -12.9483 -12.6287
   -10.6813  -9.7902  -9.5405  -9.5404  -8.9308  -8.9308  -6.7063  -6.4903
    -5.6523  -5.6018  -5.6017  -5.4981  -5.4981  -5.3035  -5.2754  -5.0837
    -4.3295  -4.1352  -3.8793  -3.8792  -3.4384  -3.4383  -2.9123  -2.5846
    -0.5068   0.1625   0.4486   0.5235   0.5236   0.9775

     occupation numbers 
     1.0000   1.0000   1.0000   1.0000   1.0000   1.0000   1.0000   1.0000
     1.0000   1.0000   1.0000   1.0000   1.0000   1.0000   1.0000   1.0000
     1.0000   1.0000   1.0000   1.0000   1.0000   1.0000   1.0000   1.0000
     1.0006   1.0023   1.0096   1.0096   1.0526   1.0526   1.0532   0.8474
     0.0000   0.0000   0.0000   0.0000   0.0000   0.0000

          k = 0.1667 0.4811 0.0000 ( 27414 PWs)   bands (ev):

   -15.2805 -14.6864 -14.5964 -14.1182 -14.0565 -13.5548 -12.7928 -12.5119
   -10.5629  -9.6127  -8.9976  -8.4375  -8.1596  -7.7393  -7.4146  -7.1675
    -6.6818  -6.4568  -6.1557  -6.0081  -5.2222  -5.2187  -5.1831  -4.7661
    -4.6927  -4.6860  -4.6136  -4.1171  -4.0389  -3.5822  -2.7487  -2.4347
    -0.4921   0.1469   0.9080   0.9405   1.0962   1.4394

     occupation numbers 
     1.0000   1.0000   1.0000   1.0000   1.0000   1.0000   1.0000   1.0000
     1.0000   1.0000   1.0000   1.0000   1.0000   1.0000   1.0000   1.0000
     1.0000   1.0000   1.0000   1.0000   1.0000   1.0000   1.0000   1.0000
     1.0000   1.0000   1.0001   1.0026   1.0041   1.0339   0.9761   0.6953
     0.0000   0.0000   0.0000   0.0000   0.0000   0.0000

          k = 0.3333 0.5774 0.0000 ( 27354 PWs)   bands (ev):

   -14.7823 -14.7820 -14.7820 -14.1423 -14.1423 -14.1423 -12.4963 -12.3254
   -10.7747  -9.6879  -7.7938  -7.7937  -7.7937  -7.7515  -7.4996  -7.4089
    -7.4089  -7.4089  -5.4824  -5.4822  -5.4822  -5.4238  -5.4238  -5.4238
    -4.7105  -4.7104  -4.7104  -4.2075  -4.2074  -4.2073  -2.4688  -2.2039
    -0.7185  -0.0480   1.5030   1.5030   1.5030   1.9151

     occupation numbers 
     1.0000   1.0000   1.0000   1.0000   1.0000   1.0000   1.0000   1.0000
     1.0000   1.0000   1.0000   1.0000   1.0000   1.0000   1.0000   1.0000
     1.0000   1.0000   1.0000   1.0000   1.0000   1.0000   1.0000   1.0000
     1.0000   1.0000   1.0000   1.0014   1.0014   1.0014   0.7318   0.4432
     0.0002   0.0000   0.0000   0.0000   0.0000   0.0000

     the Fermi energy is    -2.1624 ev

!    total energy              =    -191.41751244 Ry
     estimated scf accuracy    <       0.00000028 Ry
     smearing contrib. (-TS)   =       0.03923450 Ry
     internal energy E=F+TS    =    -191.45674694 Ry

     The total energy is F=E-TS. E is the sum of the following terms:
     one-electron contribution =   -1452.88938266 Ry
     hartree contribution      =     738.88390509 Ry
     xc contribution           =     -86.56633530 Ry
     ewald contribution        =     609.18953048 Ry
     DFT-D3 Dispersion         =      -0.07446455 Ry

     convergence has been achieved in  12 iterations

     Writing output data file ./work/sic_gec+21.save/

     init_run     :     23.50s CPU     23.76s WALL (       1 calls)
     electrons    :    716.15s CPU    739.70s WALL (       1 calls)

     Called by init_run:
     wfcinit      :     20.18s CPU     20.25s WALL (       1 calls)
     wfcinit:atom :      0.08s CPU      0.10s WALL (       7 calls)
     wfcinit:wfcr :     19.47s CPU     19.51s WALL (       7 calls)
     potinit      :      0.74s CPU      0.76s WALL (       1 calls)
     hinit0       :      1.08s CPU      1.12s WALL (       1 calls)

     Called by electrons:
     c_bands      :    597.24s CPU    610.45s WALL (      12 calls)
     sum_band     :     88.89s CPU     93.76s WALL (      12 calls)
     v_of_rho     :      5.62s CPU      6.23s WALL (      13 calls)
     v_h          :      0.42s CPU      0.44s WALL (      13 calls)
     v_xc         :      5.20s CPU      5.78s WALL (      13 calls)
     newd         :     24.07s CPU     28.76s WALL (      13 calls)
     mix_rho      :      1.19s CPU      1.37s WALL (      12 calls)
     energy_dftd3 :      0.08s CPU      0.08s WALL (       1 calls)

     Called by c_bands:
     init_us_2    :      3.69s CPU      3.74s WALL (     175 calls)
     cegterg      :    587.34s CPU    600.19s WALL (      84 calls)

     Called by sum_band:
     sum_band:wei :      0.01s CPU      0.01s WALL (      12 calls)
     sum_band:loo :     65.58s CPU     66.64s WALL (      12 calls)
     sum_band:buf :      0.29s CPU      0.29s WALL (      84 calls)
     sum_band:ini :      1.75s CPU      1.75s WALL (      84 calls)
     sum_band:cal :     27.69s CPU     27.99s WALL (      84 calls)
     sum_band:bec :      0.01s CPU      0.01s WALL (      84 calls)
     addusdens    :     22.68s CPU     26.43s WALL (      12 calls)
     addusd:skk   :      0.20s CPU      0.22s WALL (      36 calls)
     addusd:dgemm :     10.34s CPU     12.44s WALL (      36 calls)
     addusd:qvan2 :     11.02s CPU     12.54s WALL (      36 calls)

     Called by *egterg:
     cdiaghg      :      0.94s CPU      0.97s WALL (     479 calls)
     cegterg:over :     44.95s CPU     45.39s WALL (     395 calls)
     cegterg:upda :     23.60s CPU     24.00s WALL (     395 calls)
     cegterg:last :     59.73s CPU     60.93s WALL (     193 calls)
     h_psi        :    380.42s CPU    389.20s WALL (     486 calls)
     s_psi        :     77.38s CPU     78.87s WALL (     486 calls)
     g_psi        :      0.74s CPU      0.74s WALL (     395 calls)

     Called by h_psi:
     h_psi:calbec :     85.71s CPU     86.57s WALL (     486 calls)
     vloc_psi     :    216.55s CPU    222.30s WALL (     486 calls)
     add_vuspsi   :     77.37s CPU     79.29s WALL (     486 calls)

     General routines
     calbec       :    113.40s CPU    114.56s WALL (     570 calls)
     fft          :      3.49s CPU      3.86s WALL (     167 calls)
     ffts         :      0.39s CPU      0.44s WALL (      25 calls)
     fftw         :    216.24s CPU    222.12s WALL (   21782 calls)
     interpolate  :      0.63s CPU      0.69s WALL (      13 calls)


     PWSCF        :  12m19.94s CPU  12m44.29s WALL


   This run was terminated on:  13: 4:13   8Aug2021            

=------------------------------------------------------------------------------=
   JOB DONE.
=------------------------------------------------------------------------------=
