
     Program PWSCF v.6.8 starts on  8Aug2021 at 13:41:47 

     This program is part of the open-source Quantum ESPRESSO suite
     for quantum simulation of materials; please cite
         "P. Giannozzi et al., J. Phys.:Condens. Matter 21 395502 (2009);
         "P. Giannozzi et al., J. Phys.:Condens. Matter 29 465901 (2017);
         "P. Giannozzi et al., J. Chem. Phys. 152 154105 (2020);
          URL http://www.quantum-espresso.org", 
     in publications or presentations arising from this work. More details at
     http://www.quantum-espresso.org/quote

     Serial version
     1810 MiB available memory on the printing compute node when the environment starts

     Waiting for input...
     Reading input from standard input

     Current dimensions of program PWSCF are:
     Max number of different atomic species (ntypx) = 10
     Max number of k-points (npk) =  40000
     Max angular momentum in pseudopotentials (lmaxx) =  4

     Atomic positions and unit cell read from directory:
     ./work/sic_gec+22.save/
     Atomic positions from file used, from input discarded


     IMPORTANT: XC functional enforced from input :
     Exchange-correlation= PBE
                           (   1   4   3   4   0   0   0)
     Any further DFT definition will be discarded
     Please, verify this is what you really want


     --------------------------------------------
     DFT-D3 Dispersion Correction (3-body terms):
     --------------------------------------------
       Reference C6 values for interpolation: 

         atom   Coordination number   C6
         C          0.000            98.23
         C          0.987            86.49
         C          1.998            58.72
         C          2.999            51.56
         C          3.984            36.41
         Si         0.000           635.71
         Si         0.951           540.53
         Si         1.944           466.25
         Si         2.941           443.01
         Si         3.868           299.55
         Ge         0.000           727.09
         Ge         0.943           633.70
         Ge         1.945           573.31
         Ge         2.919           459.90
         Ge         3.897           360.58

       Values used:

         atom   Coordination number  R0_AB[au]  C6      C8
         C          2.992            2.750     51.37   1485.73
         Ge         3.728            3.649    367.55  33852.72
         C          2.992            2.750     51.37   1485.73
         Ge         3.728            3.649    367.55  33852.72
         C          2.992            2.750     51.37   1485.73
         Ge         3.728            3.649    367.55  33852.72
         C          2.992            2.750     51.37   1485.73
         Ge         3.728            3.649    367.55  33852.72
         C          2.946            2.750     51.53   1490.26
         Si         3.353            3.583    380.22  27195.87
         C          2.946            2.750     51.53   1490.26
         Si         3.353            3.583    380.22  27195.87
         C          2.946            2.750     51.53   1490.26
         Si         3.353            3.583    380.22  27195.87
         C          2.946            2.750     51.53   1490.26
         Si         3.353            3.583    380.22  27195.87

         Molecular C6 ( Ry / a.u.^6 ) =     44591.02

     Found symmetry operation: I + (  0.5000  0.0000  0.0000)
     This is a supercell, fractional translations are disabled

     G-vector sticks info
     --------------------
     sticks:   dense  smooth     PW     G-vecs:    dense   smooth      PW
     Sum        2161    1735    475               306453   219461   31871

     Using Slab Decomposition



     bravais-lattice index     =            4
     lattice parameter (alat)  =      12.5250  a.u.
     unit-cell volume          =    6418.4032 (a.u.)^3
     number of atoms/cell      =           16
     number of atomic types    =            3
     number of electrons       =        64.00
     number of Kohn-Sham states=           38
     kinetic-energy cutoff     =      40.0000  Ry
     charge density cutoff     =     200.0000  Ry
     Exchange-correlation= PBE
                           (   1   4   3   4   0   0   0)

     celldm(1)=  12.525029  celldm(2)=   0.000000  celldm(3)=   3.771900
     celldm(4)=   0.000000  celldm(5)=   0.000000  celldm(6)=   0.000000

     crystal axes: (cart. coord. in units of alat)
               a(1) = (   1.000000   0.000000   0.000000 )  
               a(2) = (  -0.500000   0.866025   0.000000 )  
               a(3) = (   0.000000   0.000000   3.771900 )  

     reciprocal axes: (cart. coord. in units 2 pi/alat)
               b(1) = (  1.000000  0.577350 -0.000000 )  
               b(2) = (  0.000000  1.154701  0.000000 )  
               b(3) = (  0.000000 -0.000000  0.265118 )  


     PseudoPot. # 1 for C  read from file:
     ./pseudo/C.pbe-n-rrkjus_psl.1.0.0.UPF
     MD5 check sum: 1fdd950c42eb37d8afe3dd2f8d12311e
     Pseudo is Ultrasoft + core correction, Zval =  4.0
     Generated using &quot;atomic&quot; code by A. Dal Corso  v.6.3MaX
     Using radial grid of 1073 points,  4 beta functions with: 
                l(1) =   0
                l(2) =   0
                l(3) =   1
                l(4) =   1
     Q(r) pseudized with 0 coefficients 


     PseudoPot. # 2 for Ge read from file:
     ./pseudo/Ge.pbe-n-rrkjus_psl.1.0.0.UPF
     MD5 check sum: a23a7f3f7456476e534e54484b27d8e8
     Pseudo is Ultrasoft + core correction, Zval =  4.0
     Generated using &quot;atomic&quot; code by A. Dal Corso  v.6.3
     Using radial grid of 1207 points,  4 beta functions with: 
                l(1) =   0
                l(2) =   0
                l(3) =   1
                l(4) =   1
     Q(r) pseudized with 0 coefficients 


     PseudoPot. # 3 for Si read from file:
     ./pseudo/Si.pbe-n-rrkjus_psl.1.0.0.UPF
     MD5 check sum: fa25574f73a70a4139f2adfbefec430c
     Pseudo is Ultrasoft + core correction, Zval =  4.0
     Generated using &quot;atomic&quot; code by A. Dal Corso  v.6.3
     Using radial grid of 1141 points,  6 beta functions with: 
                l(1) =   0
                l(2) =   0
                l(3) =   1
                l(4) =   1
                l(5) =   2
                l(6) =   2
     Q(r) pseudized with 0 coefficients 


     atomic species   valence    mass     pseudopotential
        C              4.00    12.01070     C ( 1.00)
        Ge             4.00    72.64000     Ge( 1.00)
        Si             4.00    28.08550     Si( 1.00)

     No symmetry found


                                    s                        frac. trans.

      isym =  1     identity                                     

 cryst.   s( 1) = (     1          0          0      )
                  (     0          1          0      )
                  (     0          0          1      )

 cart.    s( 1) = (  1.0000000  0.0000000  0.0000000 )
                  (  0.0000000  1.0000000  0.0000000 )
                  (  0.0000000  0.0000000  1.0000000 )


     point group C_1 (1)    
     there are  1 classes
     the character table:

       E    
A      1.00

     the symmetry operations in each class and the name of the first element:

     E        1
          identity                                               

   Cartesian axes

     site n.     atom                  positions (alat units)
         1           C   tau(   1) = (   0.1250000   0.0000000   2.1782408  )
         2           Ge  tau(   2) = (  -0.1250000   0.1443376   2.1782408  )
         3           C   tau(   3) = (   0.6250000   0.0000000   2.1782408  )
         4           Ge  tau(   4) = (   0.3750000   0.1443376   2.1782408  )
         5           C   tau(   5) = (   0.3750000   0.4330127   2.1782408  )
         6           Ge  tau(   6) = (   0.1250000   0.5773503   2.1782408  )
         7           C   tau(   7) = (  -0.1250000   0.4330127   2.1782408  )
         8           Ge  tau(   8) = (  -0.3750000   0.5773503   2.1782408  )
         9           C   tau(   9) = (   0.0000000   0.0000000   1.5087599  )
        10           Si  tau(  10) = (   0.0000000   0.2692204   1.5087599  )
        11           C   tau(  11) = (  -0.2500000   0.4330127   1.5087599  )
        12           Si  tau(  12) = (  -0.2500000   0.7022331   1.5087599  )
        13           C   tau(  13) = (   0.5000000   0.0000000   1.5087599  )
        14           Si  tau(  14) = (   0.5000000   0.2692204   1.5087599  )
        15           C   tau(  15) = (   0.2500000   0.4330127   1.5087599  )
        16           Si  tau(  16) = (   0.2500000   0.7022331   1.5087599  )

   Crystallographic axes

     site n.     atom                  positions (cryst. coord.)
         1           C   tau(   1) = (  0.1250000  0.0000000  0.5774917  )
         2           Ge  tau(   2) = ( -0.0416667  0.1666667  0.5774917  )
         3           C   tau(   3) = (  0.6250000  0.0000000  0.5774917  )
         4           Ge  tau(   4) = (  0.4583333  0.1666667  0.5774917  )
         5           C   tau(   5) = (  0.6250000  0.5000000  0.5774917  )
         6           Ge  tau(   6) = (  0.4583333  0.6666667  0.5774917  )
         7           C   tau(   7) = (  0.1250000  0.5000000  0.5774917  )
         8           Ge  tau(   8) = ( -0.0416667  0.6666667  0.5774917  )
         9           C   tau(   9) = (  0.0000000  0.0000000  0.4000000  )
        10           Si  tau(  10) = (  0.1554345  0.3108690  0.4000000  )
        11           C   tau(  11) = (  0.0000000  0.5000000  0.4000000  )
        12           Si  tau(  12) = (  0.1554345  0.8108690  0.4000000  )
        13           C   tau(  13) = (  0.5000000  0.0000000  0.4000000  )
        14           Si  tau(  14) = (  0.6554345  0.3108690  0.4000000  )
        15           C   tau(  15) = (  0.5000000  0.5000000  0.4000000  )
        16           Si  tau(  16) = (  0.6554345  0.8108690  0.4000000  )

     number of k points=    31  Marzari-Vanderbilt smearing, width (Ry)=  0.0500
                       cart. coord. in units 2pi/alat
        k(    1) = (   0.0000000   0.0000000   0.0000000), wk =   0.0645161
        k(    2) = (   0.0666667   0.0000000   0.0000000), wk =   0.0645161
        k(    3) = (   0.1333333   0.0000000   0.0000000), wk =   0.0645161
        k(    4) = (   0.2000000   0.0000000   0.0000000), wk =   0.0645161
        k(    5) = (   0.2666667   0.0000000   0.0000000), wk =   0.0645161
        k(    6) = (   0.3333333   0.0000000   0.0000000), wk =   0.0645161
        k(    7) = (   0.4000000   0.0000000   0.0000000), wk =   0.0645161
        k(    8) = (   0.4666667   0.0000000   0.0000000), wk =   0.0645161
        k(    9) = (   0.5333333   0.0000000   0.0000000), wk =   0.0645161
        k(   10) = (   0.6000000   0.0000000   0.0000000), wk =   0.0645161
        k(   11) = (   0.6666667   0.0000000   0.0000000), wk =   0.0645161
        k(   12) = (   0.6500000   0.0288675   0.0000000), wk =   0.0645161
        k(   13) = (   0.6333333   0.0577350   0.0000000), wk =   0.0645161
        k(   14) = (   0.6166667   0.0866025   0.0000000), wk =   0.0645161
        k(   15) = (   0.6000000   0.1154701   0.0000000), wk =   0.0645161
        k(   16) = (   0.5833333   0.1443376   0.0000000), wk =   0.0645161
        k(   17) = (   0.5666667   0.1732051   0.0000000), wk =   0.0645161
        k(   18) = (   0.5500000   0.2020726   0.0000000), wk =   0.0645161
        k(   19) = (   0.5333333   0.2309401   0.0000000), wk =   0.0645161
        k(   20) = (   0.5166667   0.2598076   0.0000000), wk =   0.0645161
        k(   21) = (   0.5000000   0.2886751   0.0000000), wk =   0.0645161
        k(   22) = (   0.4500000   0.2598076   0.0000000), wk =   0.0645161
        k(   23) = (   0.4000000   0.2309401   0.0000000), wk =   0.0645161
        k(   24) = (   0.3500000   0.2020726   0.0000000), wk =   0.0645161
        k(   25) = (   0.3000000   0.1732051   0.0000000), wk =   0.0645161
        k(   26) = (   0.2500000   0.1443376   0.0000000), wk =   0.0645161
        k(   27) = (   0.2000000   0.1154701   0.0000000), wk =   0.0645161
        k(   28) = (   0.1500000   0.0866025   0.0000000), wk =   0.0645161
        k(   29) = (   0.1000000   0.0577350   0.0000000), wk =   0.0645161
        k(   30) = (   0.0500000   0.0288675   0.0000000), wk =   0.0645161
        k(   31) = (   0.0000000   0.0000000   0.0000000), wk =   0.0645161

                       cryst. coord.
        k(    1) = (   0.0000000   0.0000000   0.0000000), wk =   0.0645161
        k(    2) = (   0.0666667  -0.0333333   0.0000000), wk =   0.0645161
        k(    3) = (   0.1333333  -0.0666667   0.0000000), wk =   0.0645161
        k(    4) = (   0.2000000  -0.1000000   0.0000000), wk =   0.0645161
        k(    5) = (   0.2666667  -0.1333333   0.0000000), wk =   0.0645161
        k(    6) = (   0.3333333  -0.1666667   0.0000000), wk =   0.0645161
        k(    7) = (   0.4000000  -0.2000000   0.0000000), wk =   0.0645161
        k(    8) = (   0.4666667  -0.2333333   0.0000000), wk =   0.0645161
        k(    9) = (   0.5333333  -0.2666667   0.0000000), wk =   0.0645161
        k(   10) = (   0.6000000  -0.3000000   0.0000000), wk =   0.0645161
        k(   11) = (   0.6666667  -0.3333333   0.0000000), wk =   0.0645161
        k(   12) = (   0.6500000  -0.3000000   0.0000000), wk =   0.0645161
        k(   13) = (   0.6333333  -0.2666667   0.0000000), wk =   0.0645161
        k(   14) = (   0.6166667  -0.2333333   0.0000000), wk =   0.0645161
        k(   15) = (   0.6000000  -0.2000000   0.0000000), wk =   0.0645161
        k(   16) = (   0.5833333  -0.1666667   0.0000000), wk =   0.0645161
        k(   17) = (   0.5666667  -0.1333333   0.0000000), wk =   0.0645161
        k(   18) = (   0.5500000  -0.1000000   0.0000000), wk =   0.0645161
        k(   19) = (   0.5333333  -0.0666667   0.0000000), wk =   0.0645161
        k(   20) = (   0.5166667  -0.0333333   0.0000000), wk =   0.0645161
        k(   21) = (   0.5000000   0.0000000   0.0000000), wk =   0.0645161
        k(   22) = (   0.4500000   0.0000000   0.0000000), wk =   0.0645161
        k(   23) = (   0.4000000   0.0000000   0.0000000), wk =   0.0645161
        k(   24) = (   0.3500000   0.0000000   0.0000000), wk =   0.0645161
        k(   25) = (   0.3000000   0.0000000   0.0000000), wk =   0.0645161
        k(   26) = (   0.2500000   0.0000000   0.0000000), wk =   0.0645161
        k(   27) = (   0.2000000   0.0000000   0.0000000), wk =   0.0645161
        k(   28) = (   0.1500000   0.0000000   0.0000000), wk =   0.0645161
        k(   29) = (   0.1000000   0.0000000   0.0000000), wk =   0.0645161
        k(   30) = (   0.0500000   0.0000000   0.0000000), wk =   0.0645161
        k(   31) = (   0.0000000   0.0000000   0.0000000), wk =   0.0645161

     Dense  grid:   306453 G-vectors     FFT dimensions: (  60,  60, 216)

     Smooth grid:   219461 G-vectors     FFT dimensions: (  54,  54, 192)

     Dynamical RAM for                 wfc:      15.90 MB

     Dynamical RAM for     wfc (w. buffer):      15.90 MB

     Dynamical RAM for           str. fact:      14.03 MB

     Dynamical RAM for           local pot:       0.00 MB

     Dynamical RAM for          nlocal pot:      70.29 MB

     Dynamical RAM for                qrad:       3.41 MB

     Dynamical RAM for          rho,v,vnew:      31.83 MB

     Dynamical RAM for           G-vectors:      19.21 MB

     Dynamical RAM for          h,s,v(r/c):       0.26 MB

     Dynamical RAM for          <psi|beta>:       0.10 MB

     Dynamical RAM for                 psi:      31.80 MB

     Dynamical RAM for                hpsi:      31.80 MB

     Dynamical RAM for                spsi:      31.80 MB

     Dynamical RAM for      wfcinit/wfcrot:      53.65 MB

     Dynamical RAM for           addusdens:     907.16 MB

     Estimated static dynamical RAM per process >     203.03 MB

     Estimated max dynamical RAM per process >       1.08 GB

     Check: negative core charge=   -0.000010

     The potential is recalculated from file :
     ./work/sic_gec+22.save/charge-density


     negative rho (up, down):  7.354E-04 0.000E+00
     Starting wfcs are   64 randomized atomic wfcs

     Band Structure Calculation
     Davidson diagonalization with overlap

     Computing kpt #:     1  of    31
     c_bands:  1 eigenvalues not converged
     total cpu time spent up to now is       66.3 secs

     Computing kpt #:     2  of    31
     c_bands:  1 eigenvalues not converged
     total cpu time spent up to now is      134.2 secs

     Computing kpt #:     3  of    31
     c_bands:  1 eigenvalues not converged
     total cpu time spent up to now is      224.2 secs

     Computing kpt #:     4  of    31
     c_bands:  1 eigenvalues not converged
     total cpu time spent up to now is      300.9 secs

     Computing kpt #:     5  of    31
     total cpu time spent up to now is      368.2 secs

     Computing kpt #:     6  of    31
     total cpu time spent up to now is      426.5 secs

     Computing kpt #:     7  of    31
     c_bands:  1 eigenvalues not converged
     total cpu time spent up to now is      498.2 secs

     Computing kpt #:     8  of    31
     c_bands:  1 eigenvalues not converged
     total cpu time spent up to now is      566.9 secs

     Computing kpt #:     9  of    31
     total cpu time spent up to now is      630.2 secs

     Computing kpt #:    10  of    31
     total cpu time spent up to now is      691.5 secs

     Computing kpt #:    11  of    31
     total cpu time spent up to now is      756.2 secs

     Computing kpt #:    12  of    31
     total cpu time spent up to now is      807.0 secs

     Computing kpt #:    13  of    31
     total cpu time spent up to now is      861.3 secs

     Computing kpt #:    14  of    31
     total cpu time spent up to now is      914.4 secs

     Computing kpt #:    15  of    31
     total cpu time spent up to now is      962.5 secs

     Computing kpt #:    16  of    31
     total cpu time spent up to now is     1008.6 secs

     Computing kpt #:    17  of    31
     total cpu time spent up to now is     1054.5 secs

     Computing kpt #:    18  of    31
     total cpu time spent up to now is     1108.1 secs

     Computing kpt #:    19  of    31
     total cpu time spent up to now is     1159.0 secs

     Computing kpt #:    20  of    31
     total cpu time spent up to now is     1218.5 secs

     Computing kpt #:    21  of    31
     total cpu time spent up to now is     1280.1 secs

     Computing kpt #:    22  of    31
     total cpu time spent up to now is     1363.4 secs

     Computing kpt #:    23  of    31
     total cpu time spent up to now is     1430.8 secs

     Computing kpt #:    24  of    31
     total cpu time spent up to now is     1488.9 secs

     Computing kpt #:    25  of    31
     total cpu time spent up to now is     1566.1 secs

     Computing kpt #:    26  of    31
     total cpu time spent up to now is     1627.1 secs

     Computing kpt #:    27  of    31
     total cpu time spent up to now is     1690.5 secs

     Computing kpt #:    28  of    31
     total cpu time spent up to now is     1773.8 secs

     Computing kpt #:    29  of    31
     total cpu time spent up to now is     1851.4 secs

     Computing kpt #:    30  of    31
     total cpu time spent up to now is     1931.8 secs

     Computing kpt #:    31  of    31
     total cpu time spent up to now is     2003.9 secs

     ethr =  1.56E-09,  avg # of iterations = 74.8

     total cpu time spent up to now is     2003.9 secs

     End of band structure calculation

          k = 0.0000 0.0000 0.0000 ( 27479 PWs)   bands (ev):

   -16.0134 -15.2516 -13.2243 -13.2236 -13.2233 -12.9476 -12.9469 -12.6715
   -10.7757 -10.7739 -10.7738 -10.3268  -9.6412  -9.6408  -5.9563  -5.4179
    -5.4175  -5.4169  -5.4114  -5.3867  -5.3863  -4.9217  -4.4719  -3.6335
    -3.6333  -3.3255  -3.2428  -3.1382  -3.0709  -3.0222  -2.8998  -2.7080
    -0.7548  -0.3411  -0.2323  -0.2066   0.0566   0.1265

          k = 0.0667 0.0000 0.0000 ( 27469 PWs)   bands (ev):

   -16.0009 -15.2402 -13.2702 -13.2696 -13.2124 -12.9746 -12.9740 -12.6647
   -10.7710 -10.7078 -10.7076 -10.3181  -9.5984  -9.5979  -5.9433  -5.4915
    -5.4285  -5.4282  -5.3993  -5.3944  -5.3941  -4.9891  -4.4872  -3.7294
    -3.6544  -3.4018  -3.2782  -3.1879  -3.0600  -3.0388  -2.9323  -2.6991
    -0.7511  -0.2852  -0.1798  -0.1609   0.0561   0.1583

          k = 0.1333 0.0000 0.0000 ( 27465 PWs)   bands (ev):

   -15.9635 -15.2061 -13.3943 -13.3939 -13.1797 -13.0512 -13.0507 -12.6445
   -10.7576 -10.5237 -10.5235 -10.2922  -9.4752  -9.4748  -5.9044  -5.6990
    -5.4588  -5.4586  -5.4158  -5.4156  -5.3632  -5.1777  -4.5337  -3.9927
    -3.7172  -3.6134  -3.3773  -3.3120  -3.1007  -3.0277  -3.0228  -2.6729
    -0.7405  -0.1391  -0.0321  -0.0306   0.0535   0.2496

          k = 0.2000 0.0000 0.0000 ( 27423 PWs)   bands (ev):

   -15.9011 -15.1494 -13.5678 -13.5676 -13.1656 -13.1653 -13.1260 -12.6121
   -10.7376 -10.2518 -10.2515 -10.2497  -9.2855  -9.2851  -6.0009  -5.8397
    -5.5046  -5.5046  -5.4551  -5.4464  -5.4464  -5.3033  -4.6137  -4.3720
    -3.9212  -3.8213  -3.5232  -3.4788  -3.2083  -3.1552  -2.9749  -2.6305
    -0.7238   0.0465   0.0555   0.1659   0.1881   0.3923

          k = 0.2667 0.0000 0.0000 ( 27443 PWs)   bands (ev):

   -15.8140 -15.0706 -13.7647 -13.7646 -13.3042 -13.3040 -13.0526 -12.5696
   -10.7150 -10.1916  -9.9210  -9.9206  -9.0468  -9.0464  -6.3539  -5.7849
    -5.7497  -5.5595  -5.5595  -5.4794  -5.4792  -5.2206  -4.8209  -4.7344
    -4.2812  -3.9661  -3.6969  -3.6671  -3.3479  -3.3124  -2.9034  -2.5741
    -0.7027   0.0319   0.2675   0.4056   0.4536   0.5795

          k = 0.3333 0.0000 0.0000 ( 27463 PWs)   bands (ev):

   -15.7025 -14.9700 -13.9672 -13.9671 -13.4547 -13.4545 -12.9614 -12.5199
   -10.6953 -10.1195  -9.5536  -9.5531  -8.7772  -8.7770  -6.7193  -6.1350
    -5.6355  -5.6151  -5.6150  -5.5050  -5.5047  -5.3132  -5.1096  -4.9270
    -4.6345  -4.1494  -3.8824  -3.8623  -3.5042  -3.4805  -2.8161  -2.5075
    -0.6787   0.0059   0.4824   0.6652   0.7322   0.8088

          k = 0.4000 0.0000 0.0000 ( 27411 PWs)   bands (ev):

   -15.5669 -14.8482 -14.1643 -14.1642 -13.6074 -13.6073 -12.8562 -12.4677
   -10.6860 -10.0352  -9.1674  -9.1669  -8.4952  -8.4950  -7.0644  -6.4793
    -5.8181  -5.6615  -5.6613  -5.5119  -5.5115  -5.4969  -5.2573  -4.9777
    -4.9002  -4.3681  -4.0682  -4.0545  -3.6652  -3.6492  -2.7181  -2.4358
    -0.6527  -0.0341   0.6959   0.9240   0.9880   1.0755

          k = 0.4667 0.0000 0.0000 ( 27407 PWs)   bands (ev):

   -15.4076 -14.7061 -14.3492 -14.3491 -13.7554 -13.7553 -12.7433 -12.4193
   -10.6947  -9.9410  -8.7796  -8.7789  -8.2196  -8.2196  -7.3607  -6.7962
    -6.3267  -5.6869  -5.6867  -5.6753  -5.4869  -5.4866  -5.3248  -5.1175
    -4.8274  -4.6177  -4.2462  -4.2367  -3.8223  -3.8115  -2.6174  -2.3668
    -0.6240  -0.0877   0.9080   1.1639   1.2164   1.3246

          k = 0.5333 0.0000 0.0000 ( 27397 PWs)   bands (ev):

   -15.2254 -14.5448 -14.5177 -14.5177 -13.8936 -13.8935 -12.6336 -12.3827
   -10.7242  -9.8388  -8.4091  -8.4083  -7.9696  -7.9695  -7.5845  -7.0665
    -6.8318  -6.0996  -5.6772  -5.6770  -5.4168  -5.4165  -5.3384  -5.1407
    -4.8930  -4.6549  -4.4111  -4.4044  -3.9696  -3.9621  -2.5277  -2.3103
    -0.5892  -0.1471   1.1185   1.3639   1.4032   1.5509

          k = 0.6000 0.0000 0.0000 ( 27399 PWs)   bands (ev):

   -15.0211 -14.6672 -14.6671 -14.3657 -14.0184 -14.0183 -12.5462 -12.3678
   -10.7647  -9.7294  -8.0780  -8.0770  -7.7617  -7.7613  -7.7203  -7.3264
    -7.2741  -6.5227  -5.6169  -5.6167  -5.5719  -5.2918  -5.2916  -5.1872
    -4.9334  -4.5591  -4.5543  -4.4628  -4.1029  -4.0977  -2.4705  -2.2766
    -0.5418  -0.1937   1.3255   1.4937   1.5173   1.7353

          k = 0.6667 0.0000 0.0000 ( 27354 PWs)   bands (ev):

   -14.7958 -14.7957 -14.7956 -14.1706 -14.1272 -14.1271 -12.5098 -12.3852
   -10.7872  -9.6109  -7.8076  -7.8063  -7.8059  -7.7645  -7.6045  -7.6037
    -7.4068  -6.9343  -5.8169  -5.4939  -5.4938  -5.4937  -5.1126  -5.1125
    -4.7063  -4.6875  -4.6839  -4.2527  -4.2191  -4.2155  -2.4722  -2.2761
    -0.4753  -0.1975   1.5215   1.5220   1.5329   1.8713

          k = 0.6500 0.0289 0.0000 ( 27398 PWs)   bands (ev):

   -14.8518 -14.8517 -14.6756 -14.2188 -14.1807 -14.0191 -12.5206 -12.3821
   -10.7791  -9.6389  -8.0404  -7.7965  -7.7542  -7.6978  -7.6975  -7.4816
    -7.3739  -6.8490  -5.7404  -5.6498  -5.4087  -5.4086  -5.2538  -5.0695
    -4.7629  -4.7465  -4.5603  -4.3044  -4.2718  -4.1047  -2.4664  -2.2853
    -0.4999  -0.1824   1.4397   1.4564   1.5612   1.7776

          k = 0.6333 0.0577 0.0000 ( 27394 PWs)   bands (ev):

   -14.9022 -14.9021 -14.5510 -14.2622 -14.2290 -13.9077 -12.5545 -12.3923
   -10.7518  -9.6576  -8.2681  -7.9845  -7.7243  -7.6077  -7.6074  -7.3713
    -7.3234  -6.7939  -5.8064  -5.6378  -5.3965  -5.3103  -5.3102  -5.0193
    -4.8138  -4.7996  -4.4322  -4.3509  -4.3226  -3.9865  -2.4831  -2.3096
    -0.5055  -0.1524   1.3306   1.3647   1.4637   1.7768

          k = 0.6167 0.0866 0.0000 ( 27386 PWs)   bands (ev):

   -14.9468 -14.9467 -14.4221 -14.3005 -14.2721 -13.7934 -12.6119 -12.4171
   -10.7032  -9.6632  -8.4903  -8.1671  -7.6768  -7.5350  -7.5347  -7.2737
    -7.2576  -6.7641  -5.9628  -5.5402  -5.5163  -5.2026  -5.2025  -4.9643
    -4.8588  -4.8468  -4.3921  -4.3679  -4.3000  -3.8652  -2.5247  -2.3485
    -0.4893  -0.1061   1.2125   1.2556   1.3067   1.7131

          k = 0.6000 0.1155 0.0000 ( 27402 PWs)   bands (ev):

   -14.9857 -14.9856 -14.3337 -14.3098 -14.2892 -13.6765 -12.6910 -12.4572
   -10.6330  -9.6531  -8.7067  -8.3436  -7.6134  -7.4778  -7.4776  -7.1883
    -7.1787  -6.7533  -6.1183  -5.6841  -5.3852  -5.0906  -5.0905  -4.9083
    -4.8978  -4.8877  -4.4279  -4.4075  -4.1642  -3.7411  -2.5909  -2.4021
    -0.4504  -0.0429   1.0920   1.1378   1.1382   1.5756

          k = 0.5833 0.1443 0.0000 ( 27398 PWs)   bands (ev):

   -15.0186 -15.0185 -14.3617 -14.3421 -14.1528 -13.5579 -12.7889 -12.5124
   -10.5426  -9.6255  -8.9169  -8.5132  -7.5359  -7.4340  -7.4338  -7.1143
    -7.0885  -6.7558  -6.2720  -5.8276  -5.2531  -4.9807  -4.9805  -4.9303
    -4.9229  -4.8542  -4.4581  -4.4414  -4.0252  -3.6149  -2.6787  -2.4700
    -0.3895   0.0368   0.9676   0.9758   1.0199   1.4190

          k = 0.5667 0.1732 0.0000 ( 27388 PWs)   bands (ev):

   -15.0456 -15.0455 -14.3844 -14.3689 -14.0133 -13.4381 -12.9019 -12.5818
   -10.4339  -9.5799  -9.1204  -8.6754  -7.4459  -7.4013  -7.4012  -7.0504
    -6.9885  -6.7675  -6.4233  -5.9701  -5.1277  -4.9579  -4.9526  -4.8775
    -4.8773  -4.8082  -4.4826  -4.4694  -3.8837  -3.4873  -2.7841  -2.5516
    -0.3085   0.1318   0.7984   0.8706   0.9096   1.2575

          k = 0.5500 0.2021 0.0000 ( 27420 PWs)   bands (ev):

   -15.0667 -15.0666 -14.4017 -14.3901 -13.8715 -13.3181 -13.0264 -12.6640
   -10.3092  -9.5165  -9.3168  -8.8292  -7.3780  -7.3779  -7.3448  -6.9952
    -6.8803  -6.7859  -6.5713  -6.1109  -5.0182  -4.9751  -4.9747  -4.7907
    -4.7895  -4.7737  -4.5014  -4.4917  -3.7402  -3.3591  -2.9030  -2.6456
    -0.2097   0.2406   0.6325   0.7824   0.8139   1.0960

          k = 0.5333 0.2309 0.0000 ( 27412 PWs)   bands (ev):

   -15.0817 -15.0817 -14.4135 -14.4059 -13.7280 -13.1989 -13.1592 -12.7571
   -10.1706  -9.5056  -9.4363  -8.9737  -7.3625  -7.3624  -7.2340  -6.9473
    -6.8093  -6.7648  -6.7152  -6.2493  -4.9969  -4.9916  -4.9146  -4.7588
    -4.7218  -4.7213  -4.5144  -4.5080  -3.5958  -3.2313  -3.0317  -2.7500
    -0.0956   0.3617   0.4714   0.7169   0.7390   0.9370

          k = 0.5167 0.2598 0.0000 ( 27446 PWs)   bands (ev):

   -15.0908 -15.0907 -14.4199 -14.4161 -13.5837 -13.2978 -13.0817 -12.8590
   -10.0197  -9.6862  -9.3405  -9.1079  -7.3536  -7.3535  -7.1147  -6.9056
    -6.8544  -6.8371  -6.6431  -6.3846  -5.0041  -5.0020  -4.8410  -4.7627
    -4.6790  -4.6788  -4.5216  -4.5184  -3.4513  -3.1675  -3.1050  -2.8626
     0.0314   0.3166   0.4934   0.6782   0.6896   0.7826

          k = 0.5000 0.2887 0.0000 ( 27446 PWs)   bands (ev):

   -15.0938 -15.0937 -14.4208 -14.4208 -13.4399 -13.4398 -12.9679 -12.9678
    -9.8579  -9.8578  -9.2306  -9.2306  -7.3507  -7.3506  -6.9878  -6.9878
    -6.8691  -6.8691  -6.5161  -6.5161  -5.0061  -5.0061  -4.7898  -4.7898
    -4.6643  -4.6642  -4.5230  -4.5230  -3.3081  -3.3080  -2.9816  -2.9815
     0.1694   0.1694   0.6342   0.6342   0.6689   0.6689

          k = 0.4500 0.2598 0.0000 ( 27404 PWs)   bands (ev):

   -15.2651 -14.9068 -14.5728 -14.2567 -13.4354 -13.4353 -12.9820 -12.9469
    -9.8869  -9.8866  -9.3250  -9.1814  -7.8201  -7.2633  -6.9464  -6.9463
    -6.8751  -6.5395  -6.4744  -6.4238  -5.1804  -4.8987  -4.8153  -4.7951
    -4.6908  -4.6687  -4.5270  -4.3469  -3.3105  -3.2972  -2.9960  -2.9615
     0.1049   0.1987   0.6099   0.6249   0.6331   0.6774

          k = 0.4000 0.2309 0.0000 ( 27374 PWs)   bands (ev):

   -15.4200 -14.7115 -14.7054 -14.0824 -13.4220 -13.4219 -12.9896 -12.9193
    -9.9675  -9.9669  -9.4534  -9.1807  -8.2796  -7.6508  -6.8288  -6.8286
    -6.4912  -6.3976  -6.2745  -6.0866  -5.3387  -4.9962  -4.9173  -4.8345
    -4.6140  -4.5472  -4.3864  -4.1593  -3.3048  -3.2785  -3.0052  -2.9358
     0.0102   0.1927   0.5585   0.5618   0.6080   0.6417

          k = 0.3500 0.2021 0.0000 ( 27410 PWs)   bands (ev):

   -15.5577 -14.8356 -14.4915 -13.9006 -13.4008 -13.4006 -12.9912 -12.8859
   -10.0849 -10.0841  -9.6017  -9.2219  -8.7253  -8.0261  -6.6516  -6.6512
    -6.3796  -6.0838  -5.9236  -5.7172  -5.4780  -5.0849  -5.0288  -4.9666
    -4.4100  -4.4018  -4.2457  -3.9627  -3.2915  -3.2529  -3.0102  -2.9050
    -0.1064   0.1566   0.4814   0.4938   0.5615   0.5622

          k = 0.3000 0.1732 0.0000 ( 27430 PWs)   bands (ev):

   -15.6778 -14.9445 -14.2677 -13.7147 -13.3729 -13.3727 -12.9879 -12.8479
   -10.2221 -10.2210  -9.7569  -9.2915  -9.1528  -8.3832  -6.4349  -6.4344
    -6.2212  -5.8677  -5.6116  -5.4564  -5.3688  -5.1636  -5.1280  -5.0809
    -4.2570  -4.1830  -4.1088  -3.7606  -3.2716  -3.2218  -3.0120  -2.8702
    -0.2352   0.0991   0.4026   0.4126   0.4436   0.5012

          k = 0.2500 0.1443 0.0000 ( 27466 PWs)   bands (ev):

   -15.7799 -15.0375 -14.0383 -13.5298 -13.3407 -13.3404 -12.9811 -12.8072
   -10.3635 -10.3623  -9.9080  -9.5568  -9.3748  -8.7155  -6.1989  -6.1983
    -6.0358  -5.7140  -5.6416  -5.2320  -5.2132  -5.1892  -5.0719  -5.0034
    -4.0832  -3.9803  -3.9629  -3.5580  -3.2466  -3.1874  -3.0122  -2.8331
    -0.3662   0.0301   0.2974   0.3256   0.3277   0.4316

          k = 0.2000 0.1155 0.0000 ( 27438 PWs)   bands (ev):

   -15.8637 -15.1141 -13.8097 -13.3527 -13.3068 -13.3065 -12.9722 -12.7665
   -10.4968 -10.4954 -10.0458  -9.9294  -9.4588  -9.0146  -5.9632  -5.9626
    -5.8437  -5.8006  -5.4210  -5.2921  -5.2808  -5.2662  -4.8383  -4.5872
    -3.8880  -3.8648  -3.7493  -3.3621  -3.2186  -3.1526  -3.0123  -2.7958
    -0.4902  -0.0410   0.1336   0.2409   0.2582   0.3602

          k = 0.1500 0.0866 0.0000 ( 27446 PWs)   bands (ev):

   -15.9291 -15.1741 -13.5929 -13.2746 -13.2742 -13.1931 -12.9629 -12.7291
   -10.6119 -10.6103 -10.2590 -10.1626  -9.5335  -9.2702  -5.8685  -5.7477
    -5.7471  -5.6644  -5.3454  -5.3294  -5.3281  -5.2223  -4.6681  -4.2138
    -3.7685  -3.6839  -3.5535  -3.1900  -3.1832  -3.1203  -3.0137  -2.7614
    -0.5983  -0.1062  -0.0346   0.1618   0.1659   0.2504

          k = 0.1000 0.0577 0.0000 ( 27482 PWs)   bands (ev):

   -15.9759 -15.2171 -13.4053 -13.2478 -13.2474 -13.0633 -12.9549 -12.6986
   -10.7006 -10.6989 -10.5276 -10.2518  -9.5917  -9.4690  -5.9172  -5.5728
    -5.5722  -5.5176  -5.3854  -5.3749  -5.3605  -5.0625  -4.5558  -3.9096
    -3.6951  -3.5008  -3.3912  -3.1642  -3.0941  -3.0352  -3.0167  -2.7333
    -0.6826  -0.1880  -0.1591  -0.0342   0.1071   0.1788

          k = 0.0500 0.0289 0.0000 ( 27451 PWs)   bands (ev):

   -16.0041 -15.2429 -13.2730 -13.2299 -13.2296 -12.9772 -12.9495 -12.6786
   -10.7566 -10.7548 -10.7088 -10.3077  -9.6286  -9.5966  -5.9466  -5.4578
    -5.4571  -5.4207  -5.4097  -5.4023  -5.3799  -4.9581  -4.4924  -3.7058
    -3.6491  -3.3720  -3.2817  -3.1453  -3.0769  -3.0204  -2.9354  -2.7146
    -0.7363  -0.2996  -0.1941  -0.1801   0.0695   0.1422

          k = 0.0000 0.0000 0.0000 ( 27479 PWs)   bands (ev):

   -16.0134 -15.2516 -13.2243 -13.2236 -13.2233 -12.9476 -12.9469 -12.6715
   -10.7757 -10.7739 -10.7738 -10.3268  -9.6412  -9.6408  -5.9563  -5.4179
    -5.4175  -5.4169  -5.4114  -5.3867  -5.3863  -4.9217  -4.4719  -3.6335
    -3.6333  -3.3255  -3.2428  -3.1382  -3.0709  -3.0222  -2.8998  -2.7080
    -0.7548  -0.3411  -0.2323  -0.2066   0.0566   0.1265

     Writing output data file ./work/sic_gec+22.save/

     init_run     :      2.97s CPU      3.17s WALL (       1 calls)
     electrons    :   1980.36s CPU   2000.49s WALL (       1 calls)

     Called by init_run:
     wfcinit      :      0.00s CPU      0.00s WALL (       1 calls)
     wfcinit:atom :      0.41s CPU      0.41s WALL (      31 calls)
     wfcinit:wfcr :    105.56s CPU    107.48s WALL (      31 calls)
     potinit      :      0.40s CPU      0.42s WALL (       1 calls)
     hinit0       :      1.04s CPU      1.04s WALL (       1 calls)

     Called by electrons:
     c_bands      :   1980.36s CPU   2000.49s WALL (       1 calls)
     v_of_rho     :      0.34s CPU      0.35s WALL (       1 calls)
     v_h          :      0.02s CPU      0.02s WALL (       1 calls)
     v_xc         :      0.32s CPU      0.33s WALL (       1 calls)
     newd         :      1.38s CPU      1.56s WALL (       1 calls)

     Called by c_bands:
     init_us_2    :      0.61s CPU      0.66s WALL (      31 calls)
     cegterg      :   1868.48s CPU   1884.49s WALL (     128 calls)

     Called by sum_band:

     Called by *egterg:
     cdiaghg      :      4.33s CPU      4.35s WALL (    2351 calls)
     cegterg:over :    178.20s CPU    179.30s WALL (    2320 calls)
     cegterg:upda :     92.84s CPU     93.79s WALL (    2320 calls)
     cegterg:last :    251.18s CPU    252.83s WALL (     758 calls)
     h_psi        :   1169.84s CPU   1180.76s WALL (    2479 calls)
     s_psi        :    233.84s CPU    235.99s WALL (    2479 calls)
     g_psi        :      3.04s CPU      3.05s WALL (    2320 calls)

     Called by h_psi:
     h_psi:calbec :    269.59s CPU    271.93s WALL (    2479 calls)
     vloc_psi     :    662.47s CPU    668.56s WALL (    2479 calls)
     add_vuspsi   :    235.19s CPU    237.19s WALL (    2479 calls)

     General routines
     calbec       :    269.58s CPU    271.92s WALL (    2479 calls)
     fft          :      0.20s CPU      0.20s WALL (      13 calls)
     ffts         :      0.02s CPU      0.02s WALL (       1 calls)
     fftw         :    573.51s CPU    578.93s WALL (   64372 calls)
     interpolate  :      0.03s CPU      0.04s WALL (       1 calls)
     davcio       :      0.21s CPU      2.39s WALL (      62 calls)


     PWSCF        :  33m 3.89s CPU  33m26.44s WALL


   This run was terminated on:  14:15:14   8Aug2021            

=------------------------------------------------------------------------------=
   JOB DONE.
=------------------------------------------------------------------------------=
