
     Program PWSCF v.6.8 starts on  8Aug2021 at 14:43:31 

     This program is part of the open-source Quantum ESPRESSO suite
     for quantum simulation of materials; please cite
         "P. Giannozzi et al., J. Phys.:Condens. Matter 21 395502 (2009);
         "P. Giannozzi et al., J. Phys.:Condens. Matter 29 465901 (2017);
         "P. Giannozzi et al., J. Chem. Phys. 152 154105 (2020);
          URL http://www.quantum-espresso.org", 
     in publications or presentations arising from this work. More details at
     http://www.quantum-espresso.org/quote

     Serial version
     1662 MiB available memory on the printing compute node when the environment starts

     Waiting for input...
     Reading input from standard input

     Current dimensions of program PWSCF are:
     Max number of different atomic species (ntypx) = 10
     Max number of k-points (npk) =  40000
     Max angular momentum in pseudopotentials (lmaxx) =  4

     IMPORTANT: XC functional enforced from input :
     Exchange-correlation= PBE
                           (   1   4   3   4   0   0   0)
     Any further DFT definition will be discarded
     Please, verify this is what you really want


     --------------------------------------------
     DFT-D3 Dispersion Correction (3-body terms):
     --------------------------------------------
       Reference C6 values for interpolation: 

         atom   Coordination number   C6
         C          0.000            98.23
         C          0.987            86.49
         C          1.998            58.72
         C          2.999            51.56
         C          3.984            36.41
         Si         0.000           635.71
         Si         0.951           540.53
         Si         1.944           466.25
         Si         2.941           443.01
         Si         3.868           299.55
         Ge         0.000           727.09
         Ge         0.943           633.70
         Ge         1.945           573.31
         Ge         2.919           459.90
         Ge         3.897           360.58

       Values used:

         atom   Coordination number  R0_AB[au]  C6      C8
         C          3.008            2.750     51.31   1484.06
         Ge         3.944            3.649    361.94  33335.48
         C          3.008            2.750     51.31   1484.07
         Ge         3.944            3.649    361.94  33335.46
         C          3.008            2.750     51.31   1484.07
         Ge         3.944            3.649    361.94  33335.46
         C          3.008            2.750     51.31   1484.07
         Ge         3.944            3.649    361.94  33335.44
         C          2.989            2.750     51.38   1486.07
         Si         3.511            3.583    340.29  24339.96
         C          2.989            2.750     51.38   1486.08
         Si         3.511            3.583    340.28  24339.43
         C          2.989            2.750     51.38   1486.08
         Si         3.511            3.583    340.28  24339.43
         C          2.989            2.750     51.38   1486.08
         Si         3.511            3.583    340.28  24338.89

         Molecular C6 ( Ry / a.u.^6 ) =     42650.06


     G-vector sticks info
     --------------------
     sticks:   dense  smooth     PW     G-vecs:    dense   smooth      PW
     Sum        2077    1663    463               294585   210977   30779

     Using Slab Decomposition



     bravais-lattice index     =            4
     lattice parameter (alat)  =      12.2794  a.u.
     unit-cell volume          =    6169.1688 (a.u.)^3
     number of atoms/cell      =           16
     number of atomic types    =            3
     number of electrons       =        64.00
     number of Kohn-Sham states=           38
     kinetic-energy cutoff     =      40.0000  Ry
     charge density cutoff     =     200.0000  Ry
     scf convergence threshold =      1.0E-06
     mixing beta               =       0.7000
     number of iterations used =            8  plain     mixing
     Exchange-correlation= PBE
                           (   1   4   3   4   0   0   0)

     celldm(1)=  12.279440  celldm(2)=   0.000000  celldm(3)=   3.847338
     celldm(4)=   0.000000  celldm(5)=   0.000000  celldm(6)=   0.000000

     crystal axes: (cart. coord. in units of alat)
               a(1) = (   1.000000   0.000000   0.000000 )  
               a(2) = (  -0.500000   0.866025   0.000000 )  
               a(3) = (   0.000000   0.000000   3.847338 )  

     reciprocal axes: (cart. coord. in units 2 pi/alat)
               b(1) = (  1.000000  0.577350 -0.000000 )  
               b(2) = (  0.000000  1.154701  0.000000 )  
               b(3) = (  0.000000 -0.000000  0.259920 )  


     PseudoPot. # 1 for C  read from file:
     ./pseudo/C.pbe-n-rrkjus_psl.1.0.0.UPF
     MD5 check sum: 1fdd950c42eb37d8afe3dd2f8d12311e
     Pseudo is Ultrasoft + core correction, Zval =  4.0
     Generated using &quot;atomic&quot; code by A. Dal Corso  v.6.3MaX
     Using radial grid of 1073 points,  4 beta functions with: 
                l(1) =   0
                l(2) =   0
                l(3) =   1
                l(4) =   1
     Q(r) pseudized with 0 coefficients 


     PseudoPot. # 2 for Ge read from file:
     ./pseudo/Ge.pbe-n-kjpaw_psl.1.0.0.UPF
     MD5 check sum: 86cd6a1ce4ead6fa7a4673d64b86017a
     Pseudo is Projector augmented-wave + core cor, Zval =  4.0
     Generated using &quot;atomic&quot; code by A. Dal Corso  v.6.3
     Shape of augmentation charge: PSQ
     Using radial grid of 1207 points,  4 beta functions with: 
                l(1) =   0
                l(2) =   0
                l(3) =   1
                l(4) =   1
     Q(r) pseudized with 0 coefficients 


     PseudoPot. # 3 for Si read from file:
     ./pseudo/Si.pbe-n-rrkjus_psl.1.0.0.UPF
     MD5 check sum: fa25574f73a70a4139f2adfbefec430c
     Pseudo is Ultrasoft + core correction, Zval =  4.0
     Generated using &quot;atomic&quot; code by A. Dal Corso  v.6.3
     Using radial grid of 1141 points,  6 beta functions with: 
                l(1) =   0
                l(2) =   0
                l(3) =   1
                l(4) =   1
                l(5) =   2
                l(6) =   2
     Q(r) pseudized with 0 coefficients 


     atomic species   valence    mass     pseudopotential
        C              4.00    12.01070     C ( 1.00)
        Ge             4.00    72.64000     Ge( 1.00)
        Si             4.00    28.08550     Si( 1.00)

     No symmetry found


                                    s                        frac. trans.

      isym =  1     identity                                     

 cryst.   s( 1) = (     1          0          0      )
                  (     0          1          0      )
                  (     0          0          1      )

 cart.    s( 1) = (  1.0000000  0.0000000  0.0000000 )
                  (  0.0000000  1.0000000  0.0000000 )
                  (  0.0000000  0.0000000  1.0000000 )


     point group C_1 (1)    
     there are  1 classes
     the character table:

       E    
A      1.00

     the symmetry operations in each class and the name of the first element:

     E        1
          identity                                               

   Cartesian axes

     site n.     atom                  positions (alat units)
         1           C   tau(   1) = (   0.0000000   0.0000000   2.2136276  )
         2           Ge  tau(   2) = (   0.0000000   0.2886883   2.2136276  )
         3           C   tau(   3) = (  -0.2500114   0.4330324   2.2136276  )
         4           Ge  tau(   4) = (  -0.2500114   0.7217207   2.2136276  )
         5           C   tau(   5) = (   0.5000228   0.0000000   2.2136276  )
         6           Ge  tau(   6) = (   0.5000228   0.2886883   2.2136276  )
         7           C   tau(   7) = (   0.2500114   0.4330324   2.2136276  )
         8           Ge  tau(   8) = (   0.2500114   0.7217207   2.2136276  )
         9           C   tau(   9) = (   0.0000000   0.0000000   1.5389351  )
        10           Si  tau(  10) = (   0.0000000   0.2886883   1.5389351  )
        11           C   tau(  11) = (  -0.2500114   0.4330324   1.5389351  )
        12           Si  tau(  12) = (  -0.2500114   0.7217207   1.5389351  )
        13           C   tau(  13) = (   0.5000228   0.0000000   1.5389351  )
        14           Si  tau(  14) = (   0.5000228   0.2886883   1.5389351  )
        15           C   tau(  15) = (   0.2500114   0.4330324   1.5389351  )
        16           Si  tau(  16) = (   0.2500114   0.7217207   1.5389351  )

   Crystallographic axes

     site n.     atom                  positions (cryst. coord.)
         1           C   tau(   1) = (  0.0000000  0.0000000  0.5753661  )
         2           Ge  tau(   2) = (  0.1666743  0.3333485  0.5753661  )
         3           C   tau(   3) = (  0.0000000  0.5000228  0.5753661  )
         4           Ge  tau(   4) = (  0.1666743  0.8333713  0.5753661  )
         5           C   tau(   5) = (  0.5000228  0.0000000  0.5753661  )
         6           Ge  tau(   6) = (  0.6666970  0.3333485  0.5753661  )
         7           C   tau(   7) = (  0.5000228  0.5000228  0.5753661  )
         8           Ge  tau(   8) = (  0.6666970  0.8333713  0.5753661  )
         9           C   tau(   9) = (  0.0000000  0.0000000  0.4000000  )
        10           Si  tau(  10) = (  0.1666743  0.3333485  0.4000000  )
        11           C   tau(  11) = (  0.0000000  0.5000228  0.4000000  )
        12           Si  tau(  12) = (  0.1666743  0.8333713  0.4000000  )
        13           C   tau(  13) = (  0.5000228  0.0000000  0.4000000  )
        14           Si  tau(  14) = (  0.6666970  0.3333485  0.4000000  )
        15           C   tau(  15) = (  0.5000228  0.5000228  0.4000000  )
        16           Si  tau(  16) = (  0.6666970  0.8333713  0.4000000  )

     number of k points=    20  Marzari-Vanderbilt smearing, width (Ry)=  0.0500
                       cart. coord. in units 2pi/alat
        k(    1) = (   0.0000000   0.0000000   0.0000000), wk =   0.0555556
        k(    2) = (   0.0000000   0.1924501   0.0000000), wk =   0.1111111
        k(    3) = (   0.0000000   0.3849002   0.0000000), wk =   0.1111111
        k(    4) = (   0.0000000  -0.5773503   0.0000000), wk =   0.0555556
        k(    5) = (   0.1666667   0.2886751   0.0000000), wk =   0.1111111
        k(    6) = (   0.1666667   0.4811252   0.0000000), wk =   0.1111111
        k(    7) = (   0.3333333   0.5773503   0.0000000), wk =   0.1111111
        k(    8) = (  -0.1666667   0.0962250   0.0000000), wk =   0.1111111
        k(    9) = (   0.1666667   0.0962250   0.0000000), wk =   0.1111111
        k(   10) = (  -0.3333333   0.1924501   0.0000000), wk =   0.1111111
        k(   11) = (   0.3333333   0.1924501   0.0000000), wk =   0.1111111
        k(   12) = (   0.5000000  -0.2886751   0.0000000), wk =   0.0555556
        k(   13) = (  -0.5000000  -0.2886751   0.0000000), wk =   0.0555556
        k(   14) = (  -0.1666667   0.2886751   0.0000000), wk =   0.1111111
        k(   15) = (   0.3333333   0.0000000   0.0000000), wk =   0.1111111
        k(   16) = (  -0.1666667   0.4811252   0.0000000), wk =   0.1111111
        k(   17) = (  -0.3333333   0.3849002   0.0000000), wk =   0.1111111
        k(   18) = (   0.5000000   0.0962250   0.0000000), wk =   0.1111111
        k(   19) = (  -0.3333333  -0.3849002   0.0000000), wk =   0.1111111
        k(   20) = (   0.5000000  -0.0962250   0.0000000), wk =   0.1111111

                       cryst. coord.
        k(    1) = (   0.0000000   0.0000000   0.0000000), wk =   0.0555556
        k(    2) = (   0.0000000   0.1666667   0.0000000), wk =   0.1111111
        k(    3) = (   0.0000000   0.3333333   0.0000000), wk =   0.1111111
        k(    4) = (   0.0000000  -0.5000000   0.0000000), wk =   0.0555556
        k(    5) = (   0.1666667   0.1666667   0.0000000), wk =   0.1111111
        k(    6) = (   0.1666667   0.3333333   0.0000000), wk =   0.1111111
        k(    7) = (   0.3333333   0.3333333   0.0000000), wk =   0.1111111
        k(    8) = (  -0.1666667   0.1666667   0.0000000), wk =   0.1111111
        k(    9) = (   0.1666667   0.0000000   0.0000000), wk =   0.1111111
        k(   10) = (  -0.3333333   0.3333333   0.0000000), wk =   0.1111111
        k(   11) = (   0.3333333   0.0000000   0.0000000), wk =   0.1111111
        k(   12) = (   0.5000000  -0.5000000   0.0000000), wk =   0.0555556
        k(   13) = (  -0.5000000   0.0000000   0.0000000), wk =   0.0555556
        k(   14) = (  -0.1666667   0.3333333   0.0000000), wk =   0.1111111
        k(   15) = (   0.3333333  -0.1666667   0.0000000), wk =   0.1111111
        k(   16) = (  -0.1666667   0.5000000   0.0000000), wk =   0.1111111
        k(   17) = (  -0.3333333   0.5000000   0.0000000), wk =   0.1111111
        k(   18) = (   0.5000000  -0.1666667   0.0000000), wk =   0.1111111
        k(   19) = (  -0.3333333  -0.1666667   0.0000000), wk =   0.1111111
        k(   20) = (   0.5000000  -0.3333333   0.0000000), wk =   0.1111111

     Dense  grid:   294585 G-vectors     FFT dimensions: (  60,  60, 216)

     Smooth grid:   210977 G-vectors     FFT dimensions: (  50,  50, 192)

     Dynamical RAM for                 wfc:      15.28 MB

     Dynamical RAM for     wfc (w. buffer):     320.91 MB

     Dynamical RAM for           str. fact:      13.49 MB

     Dynamical RAM for           local pot:       0.00 MB

     Dynamical RAM for          nlocal pot:      67.56 MB

     Dynamical RAM for                qrad:       3.41 MB

     Dynamical RAM for          rho,v,vnew:      31.28 MB

     Dynamical RAM for               rhoin:      10.43 MB

     Dynamical RAM for            rho*nmix:      71.92 MB

     Dynamical RAM for           G-vectors:      18.47 MB

     Dynamical RAM for          h,s,v(r/c):       0.26 MB

     Dynamical RAM for          <psi|beta>:       0.10 MB

     Dynamical RAM for                 psi:      30.56 MB

     Dynamical RAM for                hpsi:      30.56 MB

     Dynamical RAM for                spsi:      30.56 MB

     Dynamical RAM for      wfcinit/wfcrot:      51.57 MB

     Dynamical RAM for           addusdens:     872.03 MB

     Estimated static dynamical RAM per process >     513.18 MB

     Estimated max dynamical RAM per process >       1.42 GB

     Check: negative core charge=   -0.000010

     Initial potential from superposition of free atoms

     starting charge   63.99436, renormalised to   64.00000

     negative rho (up, down):  4.442E-04 0.000E+00
     Starting wfcs are   64 randomized atomic wfcs

     total cpu time spent up to now is       55.5 secs

     Self-consistent Calculation

     iteration #  1     ecut=    40.00 Ry     beta= 0.70
     Davidson diagonalization with overlap

---- Real-time Memory Report at c_bands before calling an iterative solver
           965 MiB given to the printing process from OS
             0 MiB allocation reported by mallinfo(arena+hblkhd)
          1252 MiB available memory on the node where the printing process lives
------------------
     ethr =  1.00E-02,  avg # of iterations =  2.5

     negative rho (up, down):  7.557E-04 0.000E+00

     total cpu time spent up to now is      174.1 secs

     WARNING: integrated charge=    64.00013479, expected=    64.00000000

     total energy              =    -798.84858821 Ry
     estimated scf accuracy    <       4.57785539 Ry

     iteration #  2     ecut=    40.00 Ry     beta= 0.70
     Davidson diagonalization with overlap

---- Real-time Memory Report at c_bands before calling an iterative solver
          1456 MiB given to the printing process from OS
             0 MiB allocation reported by mallinfo(arena+hblkhd)
          1430 MiB available memory on the node where the printing process lives
------------------
     ethr =  7.15E-03,  avg # of iterations =  3.5

     negative rho (up, down):  7.684E-04 0.000E+00

     total cpu time spent up to now is      300.9 secs

     WARNING: integrated charge=    64.00008725, expected=    64.00000000

     total energy              =    -800.12693853 Ry
     estimated scf accuracy    <       4.44268818 Ry

     iteration #  3     ecut=    40.00 Ry     beta= 0.70
     Davidson diagonalization with overlap

---- Real-time Memory Report at c_bands before calling an iterative solver
          1462 MiB given to the printing process from OS
             0 MiB allocation reported by mallinfo(arena+hblkhd)
          1513 MiB available memory on the node where the printing process lives
------------------
     ethr =  6.94E-03,  avg # of iterations =  2.0
     Minimization algorithm failed to find Fermi energy: reverting to bisection
     Possible cause: smearing is larger than the electronic band-gap.

     negative rho (up, down):  5.948E-04 0.000E+00

     total cpu time spent up to now is      409.4 secs

     WARNING: integrated charge=    64.00002031, expected=    64.00000000

     total energy              =    -800.76044190 Ry
     estimated scf accuracy    <       0.06313655 Ry

     iteration #  4     ecut=    40.00 Ry     beta= 0.70
     Davidson diagonalization with overlap

---- Real-time Memory Report at c_bands before calling an iterative solver
          1469 MiB given to the printing process from OS
             0 MiB allocation reported by mallinfo(arena+hblkhd)
          1313 MiB available memory on the node where the printing process lives
------------------
     ethr =  9.87E-05,  avg # of iterations = 10.6
     Minimization algorithm failed to find Fermi energy: reverting to bisection
     Possible cause: smearing is larger than the electronic band-gap.

     negative rho (up, down):  7.095E-04 0.000E+00

     total cpu time spent up to now is      603.3 secs

     total energy              =    -800.82383965 Ry
     estimated scf accuracy    <       0.07285631 Ry

     iteration #  5     ecut=    40.00 Ry     beta= 0.70
     Davidson diagonalization with overlap

---- Real-time Memory Report at c_bands before calling an iterative solver
          1469 MiB given to the printing process from OS
             0 MiB allocation reported by mallinfo(arena+hblkhd)
          1258 MiB available memory on the node where the printing process lives
------------------
     ethr =  9.87E-05,  avg # of iterations =  7.2
     Minimization algorithm failed to find Fermi energy: reverting to bisection
     Possible cause: smearing is larger than the electronic band-gap.

     negative rho (up, down):  8.010E-04 0.000E+00

     total cpu time spent up to now is      718.3 secs

     total energy              =    -800.81929572 Ry
     estimated scf accuracy    <       0.02563107 Ry

     iteration #  6     ecut=    40.00 Ry     beta= 0.70
     Davidson diagonalization with overlap

---- Real-time Memory Report at c_bands before calling an iterative solver
          1469 MiB given to the printing process from OS
             0 MiB allocation reported by mallinfo(arena+hblkhd)
          1269 MiB available memory on the node where the printing process lives
------------------
     ethr =  4.00E-05,  avg # of iterations =  3.6
     Minimization algorithm failed to find Fermi energy: reverting to bisection
     Possible cause: smearing is larger than the electronic band-gap.

     negative rho (up, down):  8.116E-04 0.000E+00

     total cpu time spent up to now is      831.3 secs

     total energy              =    -800.82294564 Ry
     estimated scf accuracy    <       0.00531165 Ry

     iteration #  7     ecut=    40.00 Ry     beta= 0.70
     Davidson diagonalization with overlap

---- Real-time Memory Report at c_bands before calling an iterative solver
          1474 MiB given to the printing process from OS
             0 MiB allocation reported by mallinfo(arena+hblkhd)
          1264 MiB available memory on the node where the printing process lives
------------------
     ethr =  8.30E-06,  avg # of iterations =  8.2
     Minimization algorithm failed to find Fermi energy: reverting to bisection
     Possible cause: smearing is larger than the electronic band-gap.

     negative rho (up, down):  8.426E-04 0.000E+00

     total cpu time spent up to now is      946.3 secs

     total energy              =    -800.82382917 Ry
     estimated scf accuracy    <       0.00007885 Ry

     iteration #  8     ecut=    40.00 Ry     beta= 0.70
     Davidson diagonalization with overlap

---- Real-time Memory Report at c_bands before calling an iterative solver
          1481 MiB given to the printing process from OS
             0 MiB allocation reported by mallinfo(arena+hblkhd)
          1253 MiB available memory on the node where the printing process lives
------------------
     ethr =  1.23E-07,  avg # of iterations =  7.2
     Minimization algorithm failed to find Fermi energy: reverting to bisection
     Possible cause: smearing is larger than the electronic band-gap.

     negative rho (up, down):  8.405E-04 0.000E+00

     total cpu time spent up to now is     1119.8 secs

     total energy              =    -800.82388396 Ry
     estimated scf accuracy    <       0.00023898 Ry

     iteration #  9     ecut=    40.00 Ry     beta= 0.70
     Davidson diagonalization with overlap

---- Real-time Memory Report at c_bands before calling an iterative solver
          1487 MiB given to the printing process from OS
             0 MiB allocation reported by mallinfo(arena+hblkhd)
          1305 MiB available memory on the node where the printing process lives
------------------
     ethr =  1.23E-07,  avg # of iterations =  2.0
     Minimization algorithm failed to find Fermi energy: reverting to bisection
     Possible cause: smearing is larger than the electronic band-gap.

     negative rho (up, down):  8.378E-04 0.000E+00

     total cpu time spent up to now is     1235.3 secs

     total energy              =    -800.82387649 Ry
     estimated scf accuracy    <       0.00007256 Ry

     iteration # 10     ecut=    40.00 Ry     beta= 0.70
     Davidson diagonalization with overlap

---- Real-time Memory Report at c_bands before calling an iterative solver
          1493 MiB given to the printing process from OS
             0 MiB allocation reported by mallinfo(arena+hblkhd)
          1459 MiB available memory on the node where the printing process lives
------------------
     ethr =  1.13E-07,  avg # of iterations =  2.0
     Minimization algorithm failed to find Fermi energy: reverting to bisection
     Possible cause: smearing is larger than the electronic band-gap.

     negative rho (up, down):  8.379E-04 0.000E+00

     total cpu time spent up to now is     1350.6 secs

     total energy              =    -800.82387989 Ry
     estimated scf accuracy    <       0.00000796 Ry

     iteration # 11     ecut=    40.00 Ry     beta= 0.70
     Davidson diagonalization with overlap

---- Real-time Memory Report at c_bands before calling an iterative solver
          1493 MiB given to the printing process from OS
             0 MiB allocation reported by mallinfo(arena+hblkhd)
          1126 MiB available memory on the node where the printing process lives
------------------
     ethr =  1.24E-08,  avg # of iterations =  4.2
     Minimization algorithm failed to find Fermi energy: reverting to bisection
     Possible cause: smearing is larger than the electronic band-gap.

     negative rho (up, down):  8.401E-04 0.000E+00

     total cpu time spent up to now is     1499.3 secs

     total energy              =    -800.82388307 Ry
     estimated scf accuracy    <       0.00000303 Ry

     iteration # 12     ecut=    40.00 Ry     beta= 0.70
     Davidson diagonalization with overlap

---- Real-time Memory Report at c_bands before calling an iterative solver
          1493 MiB given to the printing process from OS
             0 MiB allocation reported by mallinfo(arena+hblkhd)
          1616 MiB available memory on the node where the printing process lives
------------------
     ethr =  4.73E-09,  avg # of iterations =  1.9
     Minimization algorithm failed to find Fermi energy: reverting to bisection
     Possible cause: smearing is larger than the electronic band-gap.

     negative rho (up, down):  8.407E-04 0.000E+00

     total cpu time spent up to now is     1601.6 secs

     End of self-consistent calculation

          k = 0.0000 0.0000 0.0000 ( 26399 PWs)   bands (ev):

   -16.1704 -15.3955 -13.2184 -13.2178 -13.2172 -12.8196 -12.8189 -12.8183
   -10.7793 -10.7786 -10.7781  -9.9326  -9.9320  -9.9316  -6.0408  -5.4679
    -5.3107  -5.3103  -5.3101  -5.1996  -5.1991  -5.1989  -3.7886  -3.7878
    -3.4201  -3.4191  -3.0974  -3.0970  -3.0965  -2.7550  -2.7545  -2.7541
    -0.2923  -0.2920  -0.2914   0.0904   0.4068   0.4077

     occupation numbers 
     1.0000   1.0000   1.0000   1.0000   1.0000   1.0000   1.0000   1.0000
     1.0000   1.0000   1.0000   1.0000   1.0000   1.0000   1.0000   1.0000
     1.0000   1.0000   1.0000   1.0000   1.0000   1.0000   1.0096   1.0097
     1.0429   1.0430   1.0814   1.0815   1.0815   1.0278   1.0276   1.0274
     0.0000   0.0000   0.0000   0.0000   0.0000   0.0000

          k = 0.0000 0.1925 0.0000 ( 26387 PWs)   bands (ev):

   -16.0615 -15.2933 -13.6932 -13.2886 -13.2877 -13.1817 -12.8653 -12.8645
   -10.5570 -10.5562 -10.1156  -9.7429  -9.7421  -9.4104  -5.9266  -5.7295
    -5.7292  -5.5755  -5.5753  -5.3600  -5.2149  -5.1257  -4.3105  -4.0966
    -3.9144  -3.5954  -3.5291  -3.1494  -3.1488  -3.1290  -2.7937  -2.7930
    -0.1256  -0.1252   0.2717   0.3818   0.5468   0.5472

     occupation numbers 
     1.0000   1.0000   1.0000   1.0000   1.0000   1.0000   1.0000   1.0000
     1.0000   1.0000   1.0000   1.0000   1.0000   1.0000   1.0000   1.0000
     1.0000   1.0000   1.0000   1.0000   1.0000   1.0000   1.0004   1.0017
     1.0050   1.0230   1.0297   1.0775   1.0776   1.0793   1.0434   1.0432
     0.0000   0.0000   0.0000   0.0000   0.0000   0.0000

          k = 0.0000 0.3849 0.0000 ( 26330 PWs)   bands (ev):

   -15.7371 -14.9909 -14.4949 -13.8625 -13.4101 -13.4092 -12.9489 -12.9481
   -10.0566 -10.0557  -9.2952  -9.2943  -8.7636  -8.2652  -6.5494  -6.5491
    -6.3272  -6.3270  -5.6068  -5.5363  -5.4885  -5.0360  -4.9394  -4.9120
    -4.3124  -4.2259  -4.0216  -3.8432  -3.2438  -3.2432  -2.8660  -2.8653
     0.2297   0.2302   0.8385   0.8390   0.8711   1.0266

     occupation numbers 
     1.0000   1.0000   1.0000   1.0000   1.0000   1.0000   1.0000   1.0000
     1.0000   1.0000   1.0000   1.0000   1.0000   1.0000   1.0000   1.0000
     1.0000   1.0000   1.0000   1.0000   1.0000   1.0000   1.0000   1.0000
     1.0004   1.0007   1.0026   1.0073   1.0668   1.0669   1.0651   1.0649
     0.0000   0.0000   0.0000   0.0000   0.0000   0.0000

          k = 0.0000-0.5774 0.0000 ( 26346 PWs)   bands (ev):

   -15.2069 -15.2058 -14.5023 -14.5014 -13.4636 -13.4628 -12.9873 -12.9865
    -9.7455  -9.7446  -9.0014  -9.0004  -7.1804  -7.1802  -6.9954  -6.9952
    -6.8958  -6.8956  -6.7494  -6.7492  -5.0357  -5.0350  -4.5951  -4.5935
    -4.5198  -4.5190  -4.5148  -4.5131  -3.2870  -3.2863  -2.8999  -2.8992
     0.4255   0.4261   0.9958   0.9964   1.1540   1.1546

     occupation numbers 
     1.0000   1.0000   1.0000   1.0000   1.0000   1.0000   1.0000   1.0000
     1.0000   1.0000   1.0000   1.0000   1.0000   1.0000   1.0000   1.0000
     1.0000   1.0000   1.0000   1.0000   1.0000   1.0000   1.0000   1.0000
     1.0001   1.0001   1.0001   1.0001   1.0611   1.0612   1.0721   1.0720
     0.0000   0.0000   0.0000   0.0000   0.0000   0.0000

          k = 0.1667 0.2887 0.0000 ( 26335 PWs)   bands (ev):

   -15.8448 -15.0910 -14.0188 -14.0186 -13.4497 -13.4495 -12.9454 -12.6102
   -10.6622  -9.7496  -9.4727  -9.4721  -8.8601  -8.8596  -6.6921  -6.4516
    -5.7012  -5.5192  -5.5187  -5.4057  -5.4053  -5.1578  -5.1074  -5.0576
    -4.1921  -3.9694  -3.8384  -3.8383  -3.4058  -3.4057  -2.8214  -2.5029
    -0.2802   0.3868   0.7775   0.7949   0.7953   1.3400

     occupation numbers 
     1.0000   1.0000   1.0000   1.0000   1.0000   1.0000   1.0000   1.0000
     1.0000   1.0000   1.0000   1.0000   1.0000   1.0000   1.0000   1.0000
     1.0000   1.0000   1.0000   1.0000   1.0000   1.0000   1.0000   1.0000
     1.0009   1.0036   1.0075   1.0075   1.0448   1.0448   1.0528   0.8549
     0.0000   0.0000   0.0000   0.0000   0.0000   0.0000

          k = 0.1667 0.4811 0.0000 ( 26358 PWs)   bands (ev):

   -15.4167 -14.7926 -14.6946 -14.1943 -14.1270 -13.5982 -12.7875 -12.4899
   -10.4971  -9.5281  -8.8787  -8.3254  -8.0254  -7.6189  -7.4661  -7.1887
    -6.4911  -6.2982  -6.1158  -5.9507  -5.2516  -5.1160  -5.0799  -4.7234
    -4.6462  -4.6117  -4.5586  -4.1217  -4.0071  -3.5583  -2.6537  -2.3472
    -0.2426   0.3897   1.2112   1.2669   1.4864   1.7431

     occupation numbers 
     1.0000   1.0000   1.0000   1.0000   1.0000   1.0000   1.0000   1.0000
     1.0000   1.0000   1.0000   1.0000   1.0000   1.0000   1.0000   1.0000
     1.0000   1.0000   1.0000   1.0000   1.0000   1.0000   1.0000   1.0000
     1.0000   1.0000   1.0001   1.0014   1.0029   1.0267   0.9729   0.6980
     0.0000   0.0000   0.0000   0.0000   0.0000   0.0000

          k = 0.3333 0.5774 0.0000 ( 26334 PWs)   bands (ev):

   -14.8942 -14.8934 -14.8929 -14.2181 -14.2174 -14.2169 -12.4726 -12.2915
   -10.7022  -9.5858  -7.8386  -7.6289  -7.6282  -7.6278  -7.5576  -7.2651
    -7.2645  -7.2642  -5.4036  -5.4024  -5.4022  -5.3394  -5.3384  -5.3382
    -4.7141  -4.7136  -4.7132  -4.2173  -4.2167  -4.2163  -2.3658  -2.1043
    -0.4672   0.1932   1.8307   1.8309   1.8311   2.2548

     occupation numbers 
     1.0000   1.0000   1.0000   1.0000   1.0000   1.0000   1.0000   1.0000
     1.0000   1.0000   1.0000   1.0000   1.0000   1.0000   1.0000   1.0000
     1.0000   1.0000   1.0000   1.0000   1.0000   1.0000   1.0000   1.0000
     1.0000   1.0000   1.0000   1.0007   1.0007   1.0007   0.7179   0.4332
     0.0000   0.0000   0.0000   0.0000   0.0000   0.0000

          k =-0.1667 0.0962 0.0000 ( 26387 PWs)   bands (ev):

   -16.0615 -15.2933 -13.6930 -13.2884 -13.2881 -13.1816 -12.8651 -12.8649
   -10.5566 -10.5560 -10.1161  -9.7424  -9.7420  -9.4108  -5.9265  -5.7298
    -5.7294  -5.5758  -5.5755  -5.3600  -5.2145  -5.1253  -4.3111  -4.0972
    -3.9138  -3.5948  -3.5290  -3.1494  -3.1491  -3.1288  -2.7936  -2.7933
    -0.1254  -0.1249   0.2715   0.3818   0.5468   0.5474

     occupation numbers 
     1.0000   1.0000   1.0000   1.0000   1.0000   1.0000   1.0000   1.0000
     1.0000   1.0000   1.0000   1.0000   1.0000   1.0000   1.0000   1.0000
     1.0000   1.0000   1.0000   1.0000   1.0000   1.0000   1.0004   1.0016
     1.0050   1.0231   1.0298   1.0775   1.0775   1.0793   1.0434   1.0433
     0.0000   0.0000   0.0000   0.0000   0.0000   0.0000

          k = 0.1667 0.0962 0.0000 ( 26387 PWs)   bands (ev):

   -16.0615 -15.2933 -13.6930 -13.2886 -13.2879 -13.1816 -12.8654 -12.8645
   -10.5566 -10.5559 -10.1161  -9.7425  -9.7419  -9.4108  -5.9265  -5.7298
    -5.7294  -5.5759  -5.5754  -5.3600  -5.2145  -5.1253  -4.3111  -4.0972
    -3.9138  -3.5948  -3.5290  -3.1495  -3.1490  -3.1288  -2.7937  -2.7932
    -0.1255  -0.1248   0.2714   0.3818   0.5471   0.5476

     occupation numbers 
     1.0000   1.0000   1.0000   1.0000   1.0000   1.0000   1.0000   1.0000
     1.0000   1.0000   1.0000   1.0000   1.0000   1.0000   1.0000   1.0000
     1.0000   1.0000   1.0000   1.0000   1.0000   1.0000   1.0004   1.0016
     1.0050   1.0231   1.0298   1.0775   1.0775   1.0793   1.0434   1.0432
     0.0000   0.0000   0.0000   0.0000   0.0000   0.0000

          k =-0.3333 0.1925 0.0000 ( 26330 PWs)   bands (ev):

   -15.7371 -14.9908 -14.4949 -13.8625 -13.4098 -13.4097 -12.9487 -12.9485
   -10.0560 -10.0556  -9.2946  -9.2943  -8.7640  -8.2656  -6.5496  -6.5494
    -6.3275  -6.3272  -5.6069  -5.5368  -5.4889  -5.0360  -4.9390  -4.9116
    -4.3123  -4.2254  -4.0210  -3.8431  -3.2437  -3.2435  -2.8659  -2.8657
     0.2301   0.2304   0.8389   0.8392   0.8712   1.0269

     occupation numbers 
     1.0000   1.0000   1.0000   1.0000   1.0000   1.0000   1.0000   1.0000
     1.0000   1.0000   1.0000   1.0000   1.0000   1.0000   1.0000   1.0000
     1.0000   1.0000   1.0000   1.0000   1.0000   1.0000   1.0000   1.0000
     1.0004   1.0007   1.0027   1.0073   1.0668   1.0669   1.0651   1.0650
     0.0000   0.0000   0.0000   0.0000   0.0000   0.0000

          k = 0.3333 0.1925 0.0000 ( 26330 PWs)   bands (ev):

   -15.7371 -14.9908 -14.4949 -13.8625 -13.4100 -13.4095 -12.9490 -12.9482
   -10.0560 -10.0555  -9.2947  -9.2942  -8.7640  -8.2656  -6.5497  -6.5494
    -6.3276  -6.3272  -5.6069  -5.5368  -5.4889  -5.0360  -4.9390  -4.9116
    -4.3123  -4.2254  -4.0210  -3.8431  -3.2438  -3.2434  -2.8660  -2.8656
     0.2299   0.2306   0.8387   0.8394   0.8712   1.0268

     occupation numbers 
     1.0000   1.0000   1.0000   1.0000   1.0000   1.0000   1.0000   1.0000
     1.0000   1.0000   1.0000   1.0000   1.0000   1.0000   1.0000   1.0000
     1.0000   1.0000   1.0000   1.0000   1.0000   1.0000   1.0000   1.0000
     1.0004   1.0007   1.0027   1.0073   1.0668   1.0669   1.0651   1.0650
     0.0000   0.0000   0.0000   0.0000   0.0000   0.0000

          k = 0.5000-0.2887 0.0000 ( 26346 PWs)   bands (ev):

   -15.2064 -15.2063 -14.5019 -14.5018 -13.4634 -13.4633 -12.9870 -12.9869
    -9.7446  -9.7446  -9.0006  -9.0005  -7.1808  -7.1808  -6.9957  -6.9957
    -6.8962  -6.8961  -6.7497  -6.7496  -5.0354  -5.0353  -4.5939  -4.5938
    -4.5194  -4.5193  -4.5136  -4.5134  -3.2868  -3.2867  -2.8997  -2.8996
     0.4261   0.4261   0.9964   0.9964   1.1545   1.1545

     occupation numbers 
     1.0000   1.0000   1.0000   1.0000   1.0000   1.0000   1.0000   1.0000
     1.0000   1.0000   1.0000   1.0000   1.0000   1.0000   1.0000   1.0000
     1.0000   1.0000   1.0000   1.0000   1.0000   1.0000   1.0000   1.0000
     1.0001   1.0001   1.0001   1.0001   1.0611   1.0611   1.0721   1.0721
     0.0000   0.0000   0.0000   0.0000   0.0000   0.0000

          k =-0.5000-0.2887 0.0000 ( 26346 PWs)   bands (ev):

   -15.2067 -15.2060 -14.5023 -14.5014 -13.4636 -13.4631 -12.9873 -12.9866
    -9.7447  -9.7445  -9.0007  -9.0004  -7.1812  -7.1804  -6.9957  -6.9957
    -6.8966  -6.8957  -6.7498  -6.7496  -5.0356  -5.0351  -4.5942  -4.5936
    -4.5197  -4.5191  -4.5137  -4.5132  -3.2870  -3.2866  -2.8999  -2.8994
     0.4258   0.4264   0.9961   0.9967   1.1544   1.1546

     occupation numbers 
     1.0000   1.0000   1.0000   1.0000   1.0000   1.0000   1.0000   1.0000
     1.0000   1.0000   1.0000   1.0000   1.0000   1.0000   1.0000   1.0000
     1.0000   1.0000   1.0000   1.0000   1.0000   1.0000   1.0000   1.0000
     1.0001   1.0001   1.0001   1.0001   1.0611   1.0611   1.0721   1.0720
     0.0000   0.0000   0.0000   0.0000   0.0000   0.0000

          k =-0.1667 0.2887 0.0000 ( 26335 PWs)   bands (ev):

   -15.8448 -15.0910 -14.0191 -14.0184 -13.4501 -13.4492 -12.9454 -12.6102
   -10.6622  -9.7496  -9.4728  -9.4720  -8.8603  -8.8595  -6.6921  -6.4516
    -5.7012  -5.5193  -5.5186  -5.4059  -5.4052  -5.1578  -5.1074  -5.0576
    -4.1921  -3.9695  -3.8386  -3.8381  -3.4060  -3.4055  -2.8214  -2.5029
    -0.2802   0.3868   0.7775   0.7948   0.7956   1.3400

     occupation numbers 
     1.0000   1.0000   1.0000   1.0000   1.0000   1.0000   1.0000   1.0000
     1.0000   1.0000   1.0000   1.0000   1.0000   1.0000   1.0000   1.0000
     1.0000   1.0000   1.0000   1.0000   1.0000   1.0000   1.0000   1.0000
     1.0009   1.0036   1.0075   1.0075   1.0448   1.0449   1.0528   0.8549
     0.0000   0.0000   0.0000   0.0000   0.0000   0.0000

          k = 0.3333 0.0000 0.0000 ( 26335 PWs)   bands (ev):

   -15.8448 -15.0910 -14.0192 -14.0182 -13.4501 -13.4491 -12.9457 -12.6104
   -10.6616  -9.7491  -9.4730  -9.4721  -8.8604  -8.8596  -6.6924  -6.4519
    -5.7012  -5.5191  -5.5186  -5.4056  -5.4052  -5.1579  -5.1079  -5.0581
    -4.1915  -3.9688  -3.8387  -3.8380  -3.4061  -3.4053  -2.8216  -2.5032
    -0.2798   0.3872   0.7775   0.7949   0.7952   1.3400

     occupation numbers 
     1.0000   1.0000   1.0000   1.0000   1.0000   1.0000   1.0000   1.0000
     1.0000   1.0000   1.0000   1.0000   1.0000   1.0000   1.0000   1.0000
     1.0000   1.0000   1.0000   1.0000   1.0000   1.0000   1.0000   1.0000
     1.0009   1.0036   1.0075   1.0075   1.0448   1.0449   1.0529   0.8551
     0.0000   0.0000   0.0000   0.0000   0.0000   0.0000

          k =-0.1667 0.4811 0.0000 ( 26358 PWs)   bands (ev):

   -15.4167 -14.7926 -14.6946 -14.1943 -14.1270 -13.5982 -12.7875 -12.4899
   -10.4971  -9.5281  -8.8787  -8.3254  -8.0254  -7.6189  -7.4661  -7.1887
    -6.4911  -6.2982  -6.1158  -5.9507  -5.2516  -5.1160  -5.0799  -4.7234
    -4.6462  -4.6117  -4.5586  -4.1217  -4.0071  -3.5583  -2.6537  -2.3472
    -0.2426   0.3897   1.2112   1.2669   1.4865   1.7432

     occupation numbers 
     1.0000   1.0000   1.0000   1.0000   1.0000   1.0000   1.0000   1.0000
     1.0000   1.0000   1.0000   1.0000   1.0000   1.0000   1.0000   1.0000
     1.0000   1.0000   1.0000   1.0000   1.0000   1.0000   1.0000   1.0000
     1.0000   1.0000   1.0001   1.0014   1.0029   1.0267   0.9729   0.6980
     0.0000   0.0000   0.0000   0.0000   0.0000   0.0000

          k =-0.3333 0.3849 0.0000 ( 26358 PWs)   bands (ev):

   -15.4167 -14.7926 -14.6946 -14.1944 -14.1269 -13.5983 -12.7876 -12.4899
   -10.4969  -9.5279  -8.8781  -8.3250  -8.0259  -7.6193  -7.4663  -7.1888
    -6.4914  -6.2984  -6.1163  -5.9512  -5.2516  -5.1155  -5.0794  -4.7234
    -4.6460  -4.6116  -4.5583  -4.1216  -4.0072  -3.5584  -2.6538  -2.3473
    -0.2424   0.3898   1.2115   1.2670   1.4866   1.7435

     occupation numbers 
     1.0000   1.0000   1.0000   1.0000   1.0000   1.0000   1.0000   1.0000
     1.0000   1.0000   1.0000   1.0000   1.0000   1.0000   1.0000   1.0000
     1.0000   1.0000   1.0000   1.0000   1.0000   1.0000   1.0000   1.0000
     1.0000   1.0000   1.0001   1.0014   1.0029   1.0266   0.9730   0.6980
     0.0000   0.0000   0.0000   0.0000   0.0000   0.0000

          k = 0.5000 0.0962 0.0000 ( 26358 PWs)   bands (ev):

   -15.4167 -14.7926 -14.6946 -14.1944 -14.1269 -13.5982 -12.7877 -12.4900
   -10.4966  -9.5277  -8.8783  -8.3251  -8.0257  -7.6192  -7.4664  -7.1890
    -6.4917  -6.2987  -6.1161  -5.9510  -5.2516  -5.1157  -5.0796  -4.7234
    -4.6456  -4.6116  -4.5579  -4.1216  -4.0072  -3.5584  -2.6539  -2.3474
    -0.2422   0.3900   1.2114   1.2669   1.4867   1.7433

     occupation numbers 
     1.0000   1.0000   1.0000   1.0000   1.0000   1.0000   1.0000   1.0000
     1.0000   1.0000   1.0000   1.0000   1.0000   1.0000   1.0000   1.0000
     1.0000   1.0000   1.0000   1.0000   1.0000   1.0000   1.0000   1.0000
     1.0000   1.0000   1.0001   1.0014   1.0029   1.0266   0.9730   0.6982
     0.0000   0.0000   0.0000   0.0000   0.0000   0.0000

          k =-0.3333-0.3849 0.0000 ( 26358 PWs)   bands (ev):

   -15.4167 -14.7926 -14.6946 -14.1944 -14.1269 -13.5983 -12.7876 -12.4899
   -10.4969  -9.5279  -8.8781  -8.3250  -8.0259  -7.6193  -7.4663  -7.1888
    -6.4914  -6.2984  -6.1163  -5.9512  -5.2516  -5.1155  -5.0794  -4.7234
    -4.6460  -4.6116  -4.5583  -4.1216  -4.0072  -3.5584  -2.6538  -2.3473
    -0.2424   0.3898   1.2115   1.2670   1.4866   1.7437

     occupation numbers 
     1.0000   1.0000   1.0000   1.0000   1.0000   1.0000   1.0000   1.0000
     1.0000   1.0000   1.0000   1.0000   1.0000   1.0000   1.0000   1.0000
     1.0000   1.0000   1.0000   1.0000   1.0000   1.0000   1.0000   1.0000
     1.0000   1.0000   1.0001   1.0014   1.0029   1.0266   0.9730   0.6980
     0.0000   0.0000   0.0000   0.0000   0.0000   0.0000

          k = 0.5000-0.0962 0.0000 ( 26358 PWs)   bands (ev):

   -15.4167 -14.7926 -14.6946 -14.1944 -14.1269 -13.5982 -12.7877 -12.4900
   -10.4966  -9.5277  -8.8783  -8.3251  -8.0257  -7.6192  -7.4664  -7.1890
    -6.4917  -6.2987  -6.1161  -5.9510  -5.2516  -5.1157  -5.0796  -4.7234
    -4.6456  -4.6116  -4.5579  -4.1216  -4.0072  -3.5584  -2.6539  -2.3474
    -0.2422   0.3900   1.2114   1.2669   1.4867   1.7433

     occupation numbers 
     1.0000   1.0000   1.0000   1.0000   1.0000   1.0000   1.0000   1.0000
     1.0000   1.0000   1.0000   1.0000   1.0000   1.0000   1.0000   1.0000
     1.0000   1.0000   1.0000   1.0000   1.0000   1.0000   1.0000   1.0000
     1.0000   1.0000   1.0001   1.0014   1.0029   1.0266   0.9730   0.6982
     0.0000   0.0000   0.0000   0.0000   0.0000   0.0000

     the Fermi energy is    -2.0724 ev

!    total energy              =    -800.82388295 Ry
     estimated scf accuracy    <       0.00000046 Ry
     smearing contrib. (-TS)   =       0.03864271 Ry
     internal energy E=F+TS    =    -800.86252566 Ry

     The total energy is F=E-TS. E is the sum of the following terms:
     one-electron contribution =   -1509.86675121 Ry
     hartree contribution      =     768.69193484 Ry
     xc contribution           =     -87.15355041 Ry
     ewald contribution        =     638.59884293 Ry
     DFT-D3 Dispersion         =      -0.07498149 Ry
     one-center paw contrib.   =    -611.05802032 Ry
      -> PAW hartree energy AE =      19.51499492 Ry
      -> PAW hartree energy PS =     -19.49715031 Ry
      -> PAW xc energy AE      =    -636.33762145 Ry
      -> PAW xc energy PS      =      25.26175652 Ry
      -> total E_H with PAW    =     768.70977945 Ry
      -> total E_XC with PAW   =    -698.22941534 Ry

     convergence has been achieved in  12 iterations

     Writing output data file ./work/sic_gec1.save/

     init_run     :     54.45s CPU     55.29s WALL (       1 calls)
     electrons    :   1525.45s CPU   1546.10s WALL (       1 calls)

     Called by init_run:
     wfcinit      :     50.80s CPU     51.23s WALL (       1 calls)
     wfcinit:atom :      0.21s CPU      0.37s WALL (      20 calls)
     wfcinit:wfcr :     48.95s CPU     49.08s WALL (      20 calls)
     potinit      :      0.91s CPU      0.97s WALL (       1 calls)
     hinit0       :      1.05s CPU      1.06s WALL (       1 calls)

     Called by electrons:
     c_bands      :   1318.37s CPU   1327.96s WALL (      12 calls)
     sum_band     :    179.62s CPU    186.21s WALL (      12 calls)
     v_of_rho     :      5.00s CPU      5.20s WALL (      13 calls)
     v_h          :      0.32s CPU      0.32s WALL (      13 calls)
     v_xc         :      4.67s CPU      4.88s WALL (      13 calls)
     newd         :     21.32s CPU     25.81s WALL (      13 calls)
     PAW_pot      :      1.57s CPU      1.58s WALL (      13 calls)
     mix_rho      :      0.99s CPU      1.06s WALL (      12 calls)
     energy_dftd3 :      0.08s CPU      0.08s WALL (       1 calls)

     Called by c_bands:
     init_us_2    :      9.61s CPU      9.75s WALL (     500 calls)
     cegterg      :   1292.46s CPU   1301.64s WALL (     240 calls)

     Called by sum_band:
     sum_band:wei :      0.02s CPU      0.02s WALL (      12 calls)
     sum_band:loo :    157.57s CPU    158.92s WALL (      12 calls)
     sum_band:buf :      0.77s CPU      0.78s WALL (     240 calls)
     sum_band:ini :      4.72s CPU      4.78s WALL (     240 calls)
     sum_band:cal :     75.85s CPU     76.63s WALL (     240 calls)
     sum_band:bec :      0.04s CPU      0.04s WALL (     240 calls)
     addusdens    :     21.60s CPU     26.82s WALL (      12 calls)
     addusd:skk   :      0.22s CPU      0.25s WALL (      36 calls)
     addusd:dgemm :     10.49s CPU     14.76s WALL (      36 calls)
     addusd:qvan2 :      9.67s CPU      9.74s WALL (      36 calls)

     Called by *egterg:
     cdiaghg      :      2.44s CPU      2.45s WALL (    1338 calls)
     cegterg:over :    111.15s CPU    111.43s WALL (    1098 calls)
     cegterg:upda :     55.88s CPU     56.10s WALL (    1098 calls)
     cegterg:last :    142.52s CPU    143.05s WALL (     578 calls)
     h_psi        :    798.57s CPU    803.70s WALL (    1358 calls)
     s_psi        :    182.10s CPU    183.03s WALL (    1358 calls)
     g_psi        :      1.89s CPU      1.89s WALL (    1098 calls)

     Called by h_psi:
     h_psi:calbec :    212.70s CPU    213.63s WALL (    1358 calls)
     vloc_psi     :    402.60s CPU    404.56s WALL (    1358 calls)
     add_vuspsi   :    181.33s CPU    182.23s WALL (    1358 calls)

     General routines
     calbec       :    288.54s CPU    290.26s WALL (    1598 calls)
     fft          :      2.94s CPU      2.98s WALL (     167 calls)
     ffts         :      0.28s CPU      0.28s WALL (      25 calls)
     fftw         :    400.04s CPU    402.11s WALL (   63020 calls)
     interpolate  :      0.46s CPU      0.46s WALL (      13 calls)


     PAW routines
     PAW_pot      :      1.57s CPU      1.58s WALL (      13 calls)

     PWSCF        :  26m20.47s CPU  26m43.94s WALL


   This run was terminated on:  15:10:15   8Aug2021            

=------------------------------------------------------------------------------=
   JOB DONE.
=------------------------------------------------------------------------------=
