
     Program PWSCF v.6.8 starts on  8Aug2021 at 19:19: 9 

     This program is part of the open-source Quantum ESPRESSO suite
     for quantum simulation of materials; please cite
         "P. Giannozzi et al., J. Phys.:Condens. Matter 21 395502 (2009);
         "P. Giannozzi et al., J. Phys.:Condens. Matter 29 465901 (2017);
         "P. Giannozzi et al., J. Chem. Phys. 152 154105 (2020);
          URL http://www.quantum-espresso.org", 
     in publications or presentations arising from this work. More details at
     http://www.quantum-espresso.org/quote

     Serial version
     1529 MiB available memory on the printing compute node when the environment starts

     Waiting for input...
     Reading input from standard input

     Current dimensions of program PWSCF are:
     Max number of different atomic species (ntypx) = 10
     Max number of k-points (npk) =  40000
     Max angular momentum in pseudopotentials (lmaxx) =  4

     IMPORTANT: XC functional enforced from input :
     Exchange-correlation= PBE
                           (   1   4   3   4   0   0   0)
     Any further DFT definition will be discarded
     Please, verify this is what you really want


     --------------------------------------------
     DFT-D3 Dispersion Correction (3-body terms):
     --------------------------------------------
       Reference C6 values for interpolation: 

         atom   Coordination number   C6
         C          0.000            98.23
         C          0.987            86.49
         C          1.998            58.72
         C          2.999            51.56
         C          3.984            36.41
         Si         0.000           635.71
         Si         0.951           540.53
         Si         1.944           466.25
         Si         2.941           443.01
         Si         3.868           299.55
         Ge         0.000           727.09
         Ge         0.943           633.70
         Ge         1.945           573.31
         Ge         2.919           459.90
         Ge         3.897           360.58

       Values used:

         atom   Coordination number  R0_AB[au]  C6      C8
         C          3.021            2.750     51.27   1482.68
         Ge         4.209            3.649    360.75  33226.45
         C          3.021            2.750     51.27   1482.68
         Ge         4.209            3.649    360.75  33226.45
         C          3.021            2.750     51.27   1482.68
         Ge         4.209            3.649    360.75  33226.45
         C          3.021            2.750     51.27   1482.68
         Ge         4.209            3.649    360.75  33226.45
         C          3.005            2.750     51.32   1484.39
         Si         3.675            3.583    314.63  22504.58
         C          3.005            2.750     51.32   1484.39
         Si         3.675            3.583    314.63  22504.58
         C          3.005            2.750     51.32   1484.39
         Si         3.675            3.583    314.63  22504.58
         C          3.005            2.750     51.32   1484.39
         Si         3.675            3.583    314.63  22504.58

         Molecular C6 ( Ry / a.u.^6 ) =     41472.77

     Found symmetry operation: I + ( -0.0000  0.5000  0.0000)
     This is a supercell, fractional translations are disabled

     G-vector sticks info
     --------------------
     sticks:   dense  smooth     PW     G-vecs:    dense   smooth      PW
     Sum        1993    1597    439               282873   202403   29675

     Using Slab Decomposition



     bravais-lattice index     =            4
     lattice parameter (alat)  =      12.0339  a.u.
     unit-cell volume          =    5924.8697 (a.u.)^3
     number of atoms/cell      =           16
     number of atomic types    =            3
     number of electrons       =        64.00
     number of Kohn-Sham states=           38
     kinetic-energy cutoff     =      40.0000  Ry
     charge density cutoff     =     200.0000  Ry
     scf convergence threshold =      1.0E-06
     mixing beta               =       0.7000
     number of iterations used =            8  plain     mixing
     Exchange-correlation= PBE
                           (   1   4   3   4   0   0   0)

     celldm(1)=  12.033852  celldm(2)=   0.000000  celldm(3)=   3.925855
     celldm(4)=   0.000000  celldm(5)=   0.000000  celldm(6)=   0.000000

     crystal axes: (cart. coord. in units of alat)
               a(1) = (   1.000000   0.000000   0.000000 )  
               a(2) = (  -0.500000   0.866025   0.000000 )  
               a(3) = (   0.000000   0.000000   3.925855 )  

     reciprocal axes: (cart. coord. in units 2 pi/alat)
               b(1) = (  1.000000  0.577350 -0.000000 )  
               b(2) = (  0.000000  1.154701  0.000000 )  
               b(3) = (  0.000000 -0.000000  0.254722 )  


     PseudoPot. # 1 for C  read from file:
     ./pseudo/C.pbe-n-rrkjus_psl.1.0.0.UPF
     MD5 check sum: 1fdd950c42eb37d8afe3dd2f8d12311e
     Pseudo is Ultrasoft + core correction, Zval =  4.0
     Generated using &quot;atomic&quot; code by A. Dal Corso  v.6.3MaX
     Using radial grid of 1073 points,  4 beta functions with: 
                l(1) =   0
                l(2) =   0
                l(3) =   1
                l(4) =   1
     Q(r) pseudized with 0 coefficients 


     PseudoPot. # 2 for Ge read from file:
     ./pseudo/Ge.pbe-n-kjpaw_psl.1.0.0.UPF
     MD5 check sum: 86cd6a1ce4ead6fa7a4673d64b86017a
     Pseudo is Projector augmented-wave + core cor, Zval =  4.0
     Generated using &quot;atomic&quot; code by A. Dal Corso  v.6.3
     Shape of augmentation charge: PSQ
     Using radial grid of 1207 points,  4 beta functions with: 
                l(1) =   0
                l(2) =   0
                l(3) =   1
                l(4) =   1
     Q(r) pseudized with 0 coefficients 


     PseudoPot. # 3 for Si read from file:
     ./pseudo/Si.pbe-n-rrkjus_psl.1.0.0.UPF
     MD5 check sum: fa25574f73a70a4139f2adfbefec430c
     Pseudo is Ultrasoft + core correction, Zval =  4.0
     Generated using &quot;atomic&quot; code by A. Dal Corso  v.6.3
     Using radial grid of 1141 points,  6 beta functions with: 
                l(1) =   0
                l(2) =   0
                l(3) =   1
                l(4) =   1
                l(5) =   2
                l(6) =   2
     Q(r) pseudized with 0 coefficients 


     atomic species   valence    mass     pseudopotential
        C              4.00    12.01070     C ( 1.00)
        Ge             4.00    72.64000     Ge( 1.00)
        Si             4.00    28.08550     Si( 1.00)

      2 Sym. Ops. (no inversion) found


                                    s                        frac. trans.

      isym =  1     identity                                     

 cryst.   s( 1) = (     1          0          0      )
                  (     0          1          0      )
                  (     0          0          1      )

 cart.    s( 1) = (  1.0000000  0.0000000  0.0000000 )
                  (  0.0000000  1.0000000  0.0000000 )
                  (  0.0000000  0.0000000  1.0000000 )


      isym =  2     inv. 180 deg rotation - cart. axis [1,0,0]   

 cryst.   s( 2) = (    -1          0          0      )
                  (     1          1          0      )
                  (     0          0          1      )

 cart.    s( 2) = ( -1.0000000  0.0000000  0.0000000 )
                  (  0.0000000  1.0000000  0.0000000 )
                  (  0.0000000  0.0000000  1.0000000 )


     point group C_s (m)    
     there are  2 classes
     the character table:

       E     s    
A'     1.00  1.00
A''    1.00 -1.00

     the symmetry operations in each class and the name of the first element:

     E        1
          identity                                               
     s        2
          inv. 180 deg rotation - cart. axis [1,0,0]             

   Cartesian axes

     site n.     atom                  positions (alat units)
         1           C   tau(   1) = (  -0.0000001   0.2802090   2.2588036  )
         2           Ge  tau(   2) = (  -0.0000001  -0.0000000   2.2588036  )
         3           C   tau(   3) = (  -0.2500001   0.7132217   2.2588036  )
         4           Ge  tau(   4) = (  -0.2500001   0.4330127   2.2588036  )
         5           C   tau(   5) = (   0.4999999   0.2802090   2.2588036  )
         6           Ge  tau(   6) = (   0.4999999  -0.0000000   2.2588036  )
         7           C   tau(   7) = (   0.2499999   0.7132217   2.2588036  )
         8           Ge  tau(   8) = (   0.2499999   0.4330127   2.2588036  )
         9           C   tau(   9) = (   0.5000000   0.0000000   1.5703419  )
        10           Si  tau(  10) = (   0.5000000   0.2802090   1.5703419  )
        11           C   tau(  11) = (  -0.2500000   0.4330127   1.5703419  )
        12           Si  tau(  12) = (  -0.2500000   0.7132217   1.5703419  )
        13           C   tau(  13) = (   0.0000000   0.0000000   1.5703419  )
        14           Si  tau(  14) = (   0.0000000   0.2802090   1.5703419  )
        15           C   tau(  15) = (   0.2500000   0.4330127   1.5703419  )
        16           Si  tau(  16) = (   0.2500000   0.7132217   1.5703419  )

   Crystallographic axes

     site n.     atom                  positions (cryst. coord.)
         1           C   tau(   1) = (  0.1617787  0.3235575  0.5753661  )
         2           Ge  tau(   2) = ( -0.0000001 -0.0000000  0.5753661  )
         3           C   tau(   3) = (  0.1617787  0.8235575  0.5753661  )
         4           Ge  tau(   4) = ( -0.0000001  0.5000000  0.5753661  )
         5           C   tau(   5) = (  0.6617787  0.3235575  0.5753661  )
         6           Ge  tau(   6) = (  0.4999999 -0.0000000  0.5753661  )
         7           C   tau(   7) = (  0.6617787  0.8235575  0.5753661  )
         8           Ge  tau(   8) = (  0.4999999  0.5000000  0.5753661  )
         9           C   tau(   9) = (  0.5000000  0.0000000  0.4000000  )
        10           Si  tau(  10) = (  0.6617788  0.3235575  0.4000000  )
        11           C   tau(  11) = ( -0.0000000  0.5000000  0.4000000  )
        12           Si  tau(  12) = (  0.1617788  0.8235575  0.4000000  )
        13           C   tau(  13) = (  0.0000000  0.0000000  0.4000000  )
        14           Si  tau(  14) = (  0.1617788  0.3235575  0.4000000  )
        15           C   tau(  15) = (  0.5000000  0.5000000  0.4000000  )
        16           Si  tau(  16) = (  0.6617788  0.8235575  0.4000000  )

     number of k points=    13  Marzari-Vanderbilt smearing, width (Ry)=  0.0500
                       cart. coord. in units 2pi/alat
        k(    1) = (   0.0000000   0.0000000   0.0000000), wk =   0.0555556
        k(    2) = (   0.0000000   0.1924501   0.0000000), wk =   0.1111111
        k(    3) = (   0.0000000   0.3849002   0.0000000), wk =   0.1111111
        k(    4) = (   0.0000000  -0.5773503   0.0000000), wk =   0.0555556
        k(    5) = (   0.1666667   0.2886751   0.0000000), wk =   0.2222222
        k(    6) = (   0.1666667   0.4811252   0.0000000), wk =   0.2222222
        k(    7) = (   0.3333333   0.5773503   0.0000000), wk =   0.1111111
        k(    8) = (  -0.1666667   0.0962250   0.0000000), wk =   0.2222222
        k(    9) = (  -0.3333333   0.1924501   0.0000000), wk =   0.2222222
        k(   10) = (   0.5000000  -0.2886751   0.0000000), wk =   0.1111111
        k(   11) = (   0.3333333   0.0000000   0.0000000), wk =   0.1111111
        k(   12) = (  -0.3333333   0.3849002   0.0000000), wk =   0.2222222
        k(   13) = (   0.5000000   0.0962250   0.0000000), wk =   0.2222222

                       cryst. coord.
        k(    1) = (   0.0000000   0.0000000   0.0000000), wk =   0.0555556
        k(    2) = (   0.0000000   0.1666667   0.0000000), wk =   0.1111111
        k(    3) = (   0.0000000   0.3333333   0.0000000), wk =   0.1111111
        k(    4) = (   0.0000000  -0.5000000   0.0000000), wk =   0.0555556
        k(    5) = (   0.1666667   0.1666667   0.0000000), wk =   0.2222222
        k(    6) = (   0.1666667   0.3333333   0.0000000), wk =   0.2222222
        k(    7) = (   0.3333333   0.3333333   0.0000000), wk =   0.1111111
        k(    8) = (  -0.1666667   0.1666667   0.0000000), wk =   0.2222222
        k(    9) = (  -0.3333333   0.3333333   0.0000000), wk =   0.2222222
        k(   10) = (   0.5000000  -0.5000000   0.0000000), wk =   0.1111111
        k(   11) = (   0.3333333  -0.1666667   0.0000000), wk =   0.1111111
        k(   12) = (  -0.3333333   0.5000000   0.0000000), wk =   0.2222222
        k(   13) = (   0.5000000  -0.1666667   0.0000000), wk =   0.2222222

     Dense  grid:   282873 G-vectors     FFT dimensions: (  60,  60, 216)

     Smooth grid:   202403 G-vectors     FFT dimensions: (  50,  50, 192)

     Dynamical RAM for                 wfc:      14.68 MB

     Dynamical RAM for     wfc (w. buffer):     205.47 MB

     Dynamical RAM for           str. fact:      12.95 MB

     Dynamical RAM for           local pot:       0.00 MB

     Dynamical RAM for          nlocal pot:      64.88 MB

     Dynamical RAM for                qrad:       3.41 MB

     Dynamical RAM for          rho,v,vnew:      30.75 MB

     Dynamical RAM for               rhoin:      10.25 MB

     Dynamical RAM for            rho*nmix:      69.06 MB

     Dynamical RAM for           G-vectors:      17.73 MB

     Dynamical RAM for          h,s,v(r/c):       0.26 MB

     Dynamical RAM for          <psi|beta>:       0.10 MB

     Dynamical RAM for                 psi:      29.35 MB

     Dynamical RAM for                hpsi:      29.35 MB

     Dynamical RAM for                spsi:      29.35 MB

     Dynamical RAM for      wfcinit/wfcrot:      49.53 MB

     Dynamical RAM for           addusdens:     837.36 MB

     Estimated static dynamical RAM per process >     392.36 MB

     Estimated max dynamical RAM per process >       1.27 GB

     Check: negative core charge=   -0.000010

     Initial potential from superposition of free atoms

     starting charge   63.99436, renormalised to   64.00000

     negative rho (up, down):  4.430E-04 0.000E+00
     Starting wfcs are   64 randomized atomic wfcs

     total cpu time spent up to now is       43.4 secs

     Self-consistent Calculation

     iteration #  1     ecut=    40.00 Ry     beta= 0.70
     Davidson diagonalization with overlap

---- Real-time Memory Report at c_bands before calling an iterative solver
           948 MiB given to the printing process from OS
             0 MiB allocation reported by mallinfo(arena+hblkhd)
          1205 MiB available memory on the node where the printing process lives
------------------
     ethr =  1.00E-02,  avg # of iterations =  2.7

     negative rho (up, down):  7.305E-04 0.000E+00

     total cpu time spent up to now is      131.1 secs

     WARNING: integrated charge=    64.00001362, expected=    64.00000000

     total energy              =    -798.77171472 Ry
     estimated scf accuracy    <       4.88367501 Ry

     iteration #  2     ecut=    40.00 Ry     beta= 0.70
     Davidson diagonalization with overlap

---- Real-time Memory Report at c_bands before calling an iterative solver
          1318 MiB given to the printing process from OS
             0 MiB allocation reported by mallinfo(arena+hblkhd)
          1317 MiB available memory on the node where the printing process lives
------------------
     ethr =  7.63E-03,  avg # of iterations =  2.8

     negative rho (up, down):  7.726E-04 0.000E+00

     total cpu time spent up to now is      208.2 secs

     WARNING: integrated charge=    64.00000862, expected=    64.00000000

     total energy              =    -800.18762463 Ry
     estimated scf accuracy    <       4.04398840 Ry

     iteration #  3     ecut=    40.00 Ry     beta= 0.70
     Davidson diagonalization with overlap

---- Real-time Memory Report at c_bands before calling an iterative solver
          1324 MiB given to the printing process from OS
             0 MiB allocation reported by mallinfo(arena+hblkhd)
          1356 MiB available memory on the node where the printing process lives
------------------
     ethr =  6.32E-03,  avg # of iterations =  2.0
     Minimization algorithm failed to find Fermi energy: reverting to bisection
     Possible cause: smearing is larger than the electronic band-gap.

     negative rho (up, down):  6.076E-04 0.000E+00

     total cpu time spent up to now is      267.5 secs

     total energy              =    -800.77664906 Ry
     estimated scf accuracy    <       0.06073332 Ry

     iteration #  4     ecut=    40.00 Ry     beta= 0.70
     Davidson diagonalization with overlap

---- Real-time Memory Report at c_bands before calling an iterative solver
          1330 MiB given to the printing process from OS
             0 MiB allocation reported by mallinfo(arena+hblkhd)
          1367 MiB available memory on the node where the printing process lives
------------------
     ethr =  9.49E-05,  avg # of iterations =  9.5
     Minimization algorithm failed to find Fermi energy: reverting to bisection
     Possible cause: smearing is larger than the electronic band-gap.

     negative rho (up, down):  6.945E-04 0.000E+00

     total cpu time spent up to now is      363.8 secs

     total energy              =    -800.83361850 Ry
     estimated scf accuracy    <       0.05635553 Ry

     iteration #  5     ecut=    40.00 Ry     beta= 0.70
     Davidson diagonalization with overlap

---- Real-time Memory Report at c_bands before calling an iterative solver
          1337 MiB given to the printing process from OS
             0 MiB allocation reported by mallinfo(arena+hblkhd)
          1381 MiB available memory on the node where the printing process lives
------------------
     ethr =  8.81E-05,  avg # of iterations =  5.2
     Minimization algorithm failed to find Fermi energy: reverting to bisection
     Possible cause: smearing is larger than the electronic band-gap.

     negative rho (up, down):  7.525E-04 0.000E+00

     total cpu time spent up to now is      424.7 secs

     total energy              =    -800.82769807 Ry
     estimated scf accuracy    <       0.02278003 Ry

     iteration #  6     ecut=    40.00 Ry     beta= 0.70
     Davidson diagonalization with overlap

---- Real-time Memory Report at c_bands before calling an iterative solver
          1343 MiB given to the printing process from OS
             0 MiB allocation reported by mallinfo(arena+hblkhd)
          1379 MiB available memory on the node where the printing process lives
------------------
     c_bands:  2 eigenvalues not converged
     ethr =  3.56E-05,  avg # of iterations = 10.2
     Minimization algorithm failed to find Fermi energy: reverting to bisection
     Possible cause: smearing is larger than the electronic band-gap.

     negative rho (up, down):  7.791E-04 0.000E+00

     total cpu time spent up to now is      490.4 secs

     total energy              =    -800.82765260 Ry
     estimated scf accuracy    <       0.01486632 Ry

     iteration #  7     ecut=    40.00 Ry     beta= 0.70
     Davidson diagonalization with overlap

---- Real-time Memory Report at c_bands before calling an iterative solver
          1349 MiB given to the printing process from OS
             0 MiB allocation reported by mallinfo(arena+hblkhd)
          1376 MiB available memory on the node where the printing process lives
------------------
     ethr =  2.32E-05,  avg # of iterations =  6.7
     Minimization algorithm failed to find Fermi energy: reverting to bisection
     Possible cause: smearing is larger than the electronic band-gap.

     negative rho (up, down):  7.960E-04 0.000E+00

     total cpu time spent up to now is      556.4 secs

     total energy              =    -800.82935314 Ry
     estimated scf accuracy    <       0.00060903 Ry

     iteration #  8     ecut=    40.00 Ry     beta= 0.70
     Davidson diagonalization with overlap

---- Real-time Memory Report at c_bands before calling an iterative solver
          1355 MiB given to the printing process from OS
             0 MiB allocation reported by mallinfo(arena+hblkhd)
          1298 MiB available memory on the node where the printing process lives
------------------
     ethr =  9.52E-07,  avg # of iterations = 11.0
     Minimization algorithm failed to find Fermi energy: reverting to bisection
     Possible cause: smearing is larger than the electronic band-gap.

     negative rho (up, down):  8.020E-04 0.000E+00

     total cpu time spent up to now is      648.6 secs

     total energy              =    -800.82969321 Ry
     estimated scf accuracy    <       0.00029695 Ry

     iteration #  9     ecut=    40.00 Ry     beta= 0.70
     Davidson diagonalization with overlap

---- Real-time Memory Report at c_bands before calling an iterative solver
          1361 MiB given to the printing process from OS
             0 MiB allocation reported by mallinfo(arena+hblkhd)
          1331 MiB available memory on the node where the printing process lives
------------------
     ethr =  4.64E-07,  avg # of iterations =  1.4
     Minimization algorithm failed to find Fermi energy: reverting to bisection
     Possible cause: smearing is larger than the electronic band-gap.

     negative rho (up, down):  7.992E-04 0.000E+00

     total cpu time spent up to now is      699.9 secs

     total energy              =    -800.82968257 Ry
     estimated scf accuracy    <       0.00009178 Ry

     iteration # 10     ecut=    40.00 Ry     beta= 0.70
     Davidson diagonalization with overlap

---- Real-time Memory Report at c_bands before calling an iterative solver
          1368 MiB given to the printing process from OS
             0 MiB allocation reported by mallinfo(arena+hblkhd)
          1325 MiB available memory on the node where the printing process lives
------------------
     ethr =  1.43E-07,  avg # of iterations =  2.0
     Minimization algorithm failed to find Fermi energy: reverting to bisection
     Possible cause: smearing is larger than the electronic band-gap.

     negative rho (up, down):  7.994E-04 0.000E+00

     total cpu time spent up to now is      756.0 secs

     total energy              =    -800.82968361 Ry
     estimated scf accuracy    <       0.00001575 Ry

     iteration # 11     ecut=    40.00 Ry     beta= 0.70
     Davidson diagonalization with overlap

---- Real-time Memory Report at c_bands before calling an iterative solver
          1368 MiB given to the printing process from OS
             0 MiB allocation reported by mallinfo(arena+hblkhd)
          1290 MiB available memory on the node where the printing process lives
------------------
     ethr =  2.46E-08,  avg # of iterations =  4.0
     Minimization algorithm failed to find Fermi energy: reverting to bisection
     Possible cause: smearing is larger than the electronic band-gap.

     negative rho (up, down):  8.021E-04 0.000E+00

     total cpu time spent up to now is      832.3 secs

     End of self-consistent calculation

          k = 0.0000 0.0000 0.0000 ( 25259 PWs)   bands (ev):

   -16.3439 -15.5234 -13.2886 -13.2879 -13.0936 -12.8410 -12.8410 -12.7297
   -11.0597 -10.6495 -10.6493 -10.1008  -9.8150  -9.8150  -6.1090  -5.5369
    -5.2550  -5.2547  -5.1425  -5.1424  -5.0509  -4.9094  -3.8651  -3.4806
    -3.3572  -3.0646  -3.0643  -2.8936  -2.8761  -2.7571  -2.7568  -2.5972
    -0.0995   0.1791   0.1794   0.2500   0.4807   0.6235

     occupation numbers 
     1.0000   1.0000   1.0000   1.0000   1.0000   1.0000   1.0000   1.0000
     1.0000   1.0000   1.0000   1.0000   1.0000   1.0000   1.0000   1.0000
     1.0000   1.0000   1.0000   1.0000   1.0000   1.0000   1.0045   1.0280
     1.0426   1.0792   1.0792   1.0800   1.0782   1.0531   1.0530   0.9783
     0.0000   0.0000   0.0000   0.0000   0.0000   0.0000

          k = 0.0000 0.1925 0.0000 ( 25283 PWs)   bands (ev):

   -16.2293 -15.4159 -13.6716 -13.3625 -13.3618 -13.1476 -12.8904 -12.8903
   -10.4001 -10.4000 -10.2903  -9.6029  -9.6029  -9.5234  -5.9874  -5.7084
    -5.7081  -5.5425  -5.5424  -5.4224  -4.9447  -4.8299  -4.3509  -4.1119
    -3.4993  -3.3900  -3.1198  -3.1195  -3.1023  -3.0100  -2.7931  -2.7928
     0.3668   0.3669   0.5150   0.7128   0.7782   0.7783

     occupation numbers 
     1.0000   1.0000   1.0000   1.0000   1.0000   1.0000   1.0000   1.0000
     1.0000   1.0000   1.0000   1.0000   1.0000   1.0000   1.0000   1.0000
     1.0000   1.0000   1.0000   1.0000   1.0000   1.0000   1.0002   1.0010
     1.0260   1.0384   1.0739   1.0739   1.0758   1.0825   1.0632   1.0631
     0.0000   0.0000   0.0000   0.0000   0.0000   0.0000

          k = 0.0000 0.3849 0.0000 ( 25329 PWs)   bands (ev):

   -15.8873 -15.0967 -14.5619 -13.8947 -13.4900 -13.4894 -12.9799 -12.9798
    -9.8151  -9.8150  -9.0845  -9.0845  -8.8393  -8.3121  -6.6249  -6.6246
    -6.3680  -6.3680  -5.6332  -5.5339  -5.4961  -5.0786  -4.6373  -4.5997
    -4.2573  -3.8471  -3.7966  -3.5992  -3.2189  -3.2186  -2.8626  -2.8623
     0.7858   0.7859   1.1026   1.1027   1.1867   1.6258

     occupation numbers 
     1.0000   1.0000   1.0000   1.0000   1.0000   1.0000   1.0000   1.0000
     1.0000   1.0000   1.0000   1.0000   1.0000   1.0000   1.0000   1.0000
     1.0000   1.0000   1.0000   1.0000   1.0000   1.0000   1.0000   1.0000
     1.0003   1.0050   1.0066   1.0173   1.0615   1.0615   1.0765   1.0764
     0.0000   0.0000   0.0000   0.0000   0.0000   0.0000

          k = 0.0000-0.5774 0.0000 ( 25316 PWs)   bands (ev):

   -15.3251 -15.3246 -14.5787 -14.5786 -13.5462 -13.5457 -13.0208 -13.0208
    -9.4165  -9.4165  -8.7125  -8.7125  -7.1941  -7.1938  -7.1636  -7.1633
    -6.9052  -6.9051  -6.8702  -6.8702  -5.0372  -5.0370  -4.5268  -4.5266
    -4.2525  -4.2525  -4.1612  -4.1605  -3.2639  -3.2637  -2.8958  -2.8956
     1.0341   1.0341   1.2743   1.2745   1.6197   1.6198

     occupation numbers 
     1.0000   1.0000   1.0000   1.0000   1.0000   1.0000   1.0000   1.0000
     1.0000   1.0000   1.0000   1.0000   1.0000   1.0000   1.0000   1.0000
     1.0000   1.0000   1.0000   1.0000   1.0000   1.0000   1.0000   1.0000
     1.0004   1.0004   1.0007   1.0007   1.0553   1.0553   1.0802   1.0802
     0.0000   0.0000   0.0000   0.0000   0.0000   0.0000

          k = 0.1667 0.2887 0.0000 ( 25322 PWs)   bands (ev):

   -16.0022 -15.2037 -14.1134 -14.0461 -13.4996 -13.4501 -13.0016 -12.6181
   -10.5000  -9.6039  -9.5808  -9.2574  -8.9278  -8.6698  -6.7212  -6.4530
    -5.7490  -5.5149  -5.3889  -5.2571  -5.2017  -5.1267  -5.0464  -4.9852
    -3.8801  -3.8282  -3.7446  -3.6063  -3.4086  -3.3239  -2.7674  -2.4966
     0.2423   0.5819   1.0669   1.1105   1.3271   1.4024

     occupation numbers 
     1.0000   1.0000   1.0000   1.0000   1.0000   1.0000   1.0000   1.0000
     1.0000   1.0000   1.0000   1.0000   1.0000   1.0000   1.0000   1.0000
     1.0000   1.0000   1.0000   1.0000   1.0000   1.0000   1.0000   1.0000
     1.0042   1.0056   1.0087   1.0167   1.0361   1.0471   1.0562   0.9057
     0.0000   0.0000   0.0000   0.0000   0.0000   0.0000

          k = 0.1667 0.4811 0.0000 ( 25336 PWs)   bands (ev):

   -15.5500 -14.8858 -14.7848 -14.2975 -14.1813 -13.6562 -12.8455 -12.4945
   -10.2529  -9.3086  -8.5420  -8.0536  -8.0379  -7.6328  -7.5948  -7.2778
    -6.4610  -6.2780  -6.2329  -6.0278  -5.2717  -4.8156  -4.7802  -4.7479
    -4.5854  -4.3236  -4.2118  -4.1028  -4.0049  -3.5673  -2.5959  -2.3435
     0.3533   0.5851   1.5933   1.8303   2.0131   2.0541

     occupation numbers 
     1.0000   1.0000   1.0000   1.0000   1.0000   1.0000   1.0000   1.0000
     1.0000   1.0000   1.0000   1.0000   1.0000   1.0000   1.0000   1.0000
     1.0000   1.0000   1.0000   1.0000   1.0000   1.0000   1.0000   1.0000
     1.0000   1.0002   1.0005   1.0010   1.0020   1.0198   0.9775   0.7629
     0.0000   0.0000   0.0000   0.0000   0.0000   0.0000

          k = 0.3333 0.5774 0.0000 ( 25278 PWs)   bands (ev):

   -15.0199 -15.0011 -15.0005 -14.2994 -14.2839 -14.2838 -12.4619 -12.2570
   -10.5950  -9.4587  -7.9079  -7.5930  -7.5630  -7.5627  -7.2119  -7.2018
    -7.2017  -6.9190  -5.5284  -5.4284  -5.1755  -5.1750  -5.1183  -5.1183
    -4.7340  -4.7057  -4.7054  -4.2443  -4.2158  -4.2156  -2.2066  -2.1073
     0.1351   0.2105   2.2021   2.2022   2.2066   2.5793

     occupation numbers 
     1.0000   1.0000   1.0000   1.0000   1.0000   1.0000   1.0000   1.0000
     1.0000   1.0000   1.0000   1.0000   1.0000   1.0000   1.0000   1.0000
     1.0000   1.0000   1.0000   1.0000   1.0000   1.0000   1.0000   1.0000
     1.0000   1.0000   1.0000   1.0004   1.0005   1.0005   0.6150   0.5055
     0.0000   0.0000   0.0000   0.0000   0.0000   0.0000

          k =-0.1667 0.0962 0.0000 ( 25283 PWs)   bands (ev):

   -16.2304 -15.4169 -13.7726 -13.3514 -13.2172 -13.2034 -12.8840 -12.7945
   -10.7853 -10.4294  -9.9693  -9.8826  -9.6230  -9.2747  -5.9895  -5.6863
    -5.5246  -5.4874  -5.4244  -5.3082  -5.1554  -5.0672  -4.1607  -3.8826
    -3.7086  -3.5048  -3.3488  -3.1228  -3.1083  -2.9583  -2.7827  -2.6477
     0.1002   0.3438   0.4281   0.7201   0.7433   0.7524

     occupation numbers 
     1.0000   1.0000   1.0000   1.0000   1.0000   1.0000   1.0000   1.0000
     1.0000   1.0000   1.0000   1.0000   1.0000   1.0000   1.0000   1.0000
     1.0000   1.0000   1.0000   1.0000   1.0000   1.0000   1.0007   1.0041
     1.0104   1.0255   1.0437   1.0736   1.0751   1.0833   1.0605   1.0074
     0.0000   0.0000   0.0000   0.0000   0.0000   0.0000

          k =-0.3333 0.1925 0.0000 ( 25329 PWs)   bands (ev):

   -15.8925 -15.1015 -14.6008 -13.9255 -13.4558 -13.3858 -12.9583 -12.9127
   -10.1778  -9.9452  -9.3652  -9.1812  -8.5670  -8.0880  -6.5215  -6.3632
    -6.2802  -6.1185  -5.6374  -5.2620  -5.2430  -5.0835  -4.8694  -4.8485
    -4.3106  -4.1334  -3.9014  -3.8509  -3.1809  -3.1052  -2.8264  -2.7532
     0.5464   0.6939   0.8092   1.0031   1.1739   1.4432

     occupation numbers 
     1.0000   1.0000   1.0000   1.0000   1.0000   1.0000   1.0000   1.0000
     1.0000   1.0000   1.0000   1.0000   1.0000   1.0000   1.0000   1.0000
     1.0000   1.0000   1.0000   1.0000   1.0000   1.0000   1.0000   1.0000
     1.0002   1.0008   1.0037   1.0049   1.0665   1.0755   1.0705   1.0518
     0.0000   0.0000   0.0000   0.0000   0.0000   0.0000

          k = 0.5000-0.2887 0.0000 ( 25316 PWs)   bands (ev):

   -15.3400 -15.3400 -14.5916 -14.5916 -13.4825 -13.4825 -12.9791 -12.9791
    -9.7257  -9.7257  -8.9609  -8.9609  -6.9235  -6.9235  -6.9109  -6.9109
    -6.6750  -6.6750  -6.6403  -6.6402  -5.0610  -5.0609  -4.5510  -4.5509
    -4.5220  -4.5220  -4.4255  -4.4254  -3.1920  -3.1920  -2.8255  -2.8254
     0.8482   0.8482   1.0709   1.0709   1.5214   1.5214

     occupation numbers 
     1.0000   1.0000   1.0000   1.0000   1.0000   1.0000   1.0000   1.0000
     1.0000   1.0000   1.0000   1.0000   1.0000   1.0000   1.0000   1.0000
     1.0000   1.0000   1.0000   1.0000   1.0000   1.0000   1.0000   1.0000
     1.0000   1.0000   1.0001   1.0001   1.0651   1.0651   1.0704   1.0704
     0.0000   0.0000   0.0000   0.0000   0.0000   0.0000

          k = 0.3333 0.0000 0.0000 ( 25322 PWs)   bands (ev):

   -16.0058 -15.2069 -14.0995 -14.0989 -13.4895 -13.4895 -12.8289 -12.5278
   -10.8824  -9.8696  -9.3337  -9.3335  -8.7264  -8.7263  -6.5137  -6.2473
    -5.7551  -5.4432  -5.4429  -5.3297  -5.3297  -5.2044  -4.7059  -4.5801
    -4.2570  -4.0412  -3.8104  -3.8101  -3.3908  -3.3906  -2.6034  -2.3688
     0.0108   0.2553   1.0811   1.2705   1.2708   1.5965

     occupation numbers 
     1.0000   1.0000   1.0000   1.0000   1.0000   1.0000   1.0000   1.0000
     1.0000   1.0000   1.0000   1.0000   1.0000   1.0000   1.0000   1.0000
     1.0000   1.0000   1.0000   1.0000   1.0000   1.0000   1.0000   1.0000
     1.0003   1.0016   1.0061   1.0062   1.0383   1.0384   0.9822   0.7887
     0.0000   0.0000   0.0000   0.0000   0.0000   0.0000

          k =-0.3333 0.3849 0.0000 ( 25336 PWs)   bands (ev):

   -15.5548 -14.9139 -14.7890 -14.2525 -14.2041 -13.6224 -12.7964 -12.4693
   -10.3920  -9.4121  -8.8993  -8.3267  -7.7236  -7.5024  -7.3615  -7.1921
    -6.3285  -6.1614  -5.9093  -5.7322  -5.2794  -5.1305  -5.0849  -4.7556
    -4.6264  -4.4570  -4.3419  -4.1441  -3.9463  -3.5076  -2.5473  -2.3058
     0.2726   0.4845   1.5597   1.6256   1.8391   1.8917

     occupation numbers 
     1.0000   1.0000   1.0000   1.0000   1.0000   1.0000   1.0000   1.0000
     1.0000   1.0000   1.0000   1.0000   1.0000   1.0000   1.0000   1.0000
     1.0000   1.0000   1.0000   1.0000   1.0000   1.0000   1.0000   1.0000
     1.0000   1.0001   1.0002   1.0008   1.0028   1.0252   0.9447   0.7233
     0.0000   0.0000   0.0000   0.0000   0.0000   0.0000

          k = 0.5000 0.0962 0.0000 ( 25336 PWs)   bands (ev):

   -15.5614 -14.9035 -14.7947 -14.2690 -14.1959 -13.6350 -12.7242 -12.4330
   -10.5722  -9.5458  -8.7839  -8.2280  -7.8605  -7.4675  -7.3950  -7.0849
    -6.0847  -6.0054  -5.9645  -5.8322  -5.2898  -4.9882  -4.9631  -4.7665
    -4.6811  -4.6113  -4.6047  -4.1290  -3.9675  -3.5294  -2.4777  -2.2541
     0.1826   0.3377   1.5800   1.6862   1.8774   1.9156

     occupation numbers 
     1.0000   1.0000   1.0000   1.0000   1.0000   1.0000   1.0000   1.0000
     1.0000   1.0000   1.0000   1.0000   1.0000   1.0000   1.0000   1.0000
     1.0000   1.0000   1.0000   1.0000   1.0000   1.0000   1.0000   1.0000
     1.0000   1.0000   1.0000   1.0009   1.0025   1.0231   0.8900   0.6674
     0.0000   0.0000   0.0000   0.0000   0.0000   0.0000

     the Fermi energy is    -2.0074 ev

!    total energy              =    -800.82968887 Ry
     estimated scf accuracy    <       0.00000088 Ry
     smearing contrib. (-TS)   =       0.03957214 Ry
     internal energy E=F+TS    =    -800.86926101 Ry

     The total energy is F=E-TS. E is the sum of the following terms:
     one-electron contribution =   -1572.39150595 Ry
     hartree contribution      =     800.49177360 Ry
     xc contribution           =     -87.79363057 Ry
     ewald contribution        =     670.00022156 Ry
     DFT-D3 Dispersion         =      -0.07606521 Ry
     one-center paw contrib.   =    -611.10005443 Ry
      -> PAW hartree energy AE =      21.05173754 Ry
      -> PAW hartree energy PS =     -21.03301746 Ry
      -> PAW xc energy AE      =    -636.84525546 Ry
      -> PAW xc energy PS      =      25.72648094 Ry
      -> total E_H with PAW    =     800.51049368 Ry
      -> total E_XC with PAW   =    -698.91240509 Ry

     convergence has been achieved in  11 iterations

     Writing output data file ./work/sic_gec_23.save/

     init_run     :     42.52s CPU     43.22s WALL (       1 calls)
     electrons    :    778.39s CPU    788.89s WALL (       1 calls)

     Called by init_run:
     wfcinit      :     39.28s CPU     39.63s WALL (       1 calls)
     wfcinit:atom :      0.16s CPU      0.24s WALL (      13 calls)
     wfcinit:wfcr :     37.96s CPU     38.15s WALL (      13 calls)
     potinit      :      0.81s CPU      0.87s WALL (       1 calls)
     hinit0       :      0.92s CPU      0.93s WALL (       1 calls)

     Called by electrons:
     c_bands      :    662.83s CPU    665.79s WALL (      11 calls)
     sum_band     :     93.82s CPU     97.97s WALL (      11 calls)
     v_of_rho     :      4.35s CPU      4.52s WALL (      12 calls)
     v_h          :      0.28s CPU      0.28s WALL (      12 calls)
     v_xc         :      4.07s CPU      4.24s WALL (      12 calls)
     newd         :     16.58s CPU     20.05s WALL (      12 calls)
     PAW_pot      :      1.33s CPU      1.33s WALL (      12 calls)
     mix_rho      :      0.76s CPU      0.78s WALL (      11 calls)
     energy_dftd3 :      0.08s CPU      0.08s WALL (       1 calls)

     Called by c_bands:
     init_us_2    :      4.98s CPU      4.99s WALL (     299 calls)
     cegterg      :    649.26s CPU    652.07s WALL (     143 calls)

     Called by sum_band:
     sum_band:wei :      0.01s CPU      0.01s WALL (      11 calls)
     sum_band:loo :     76.99s CPU     77.03s WALL (      11 calls)
     sum_band:buf :      0.40s CPU      0.40s WALL (     143 calls)
     sum_band:ini :      2.41s CPU      2.41s WALL (     143 calls)
     sum_band:cal :     37.77s CPU     37.78s WALL (     143 calls)
     sum_band:bec :      0.02s CPU      0.02s WALL (     143 calls)
     addusdens    :     16.30s CPU     20.40s WALL (      11 calls)
     addusd:skk   :      0.16s CPU      0.18s WALL (      33 calls)
     addusd:dgemm :      7.89s CPU     11.35s WALL (      33 calls)
     addusd:qvan2 :      7.27s CPU      7.28s WALL (      33 calls)

     Called by *egterg:
     cdiaghg      :      1.53s CPU      1.54s WALL (     891 calls)
     cegterg:over :     57.53s CPU     57.55s WALL (     748 calls)
     cegterg:upda :     28.44s CPU     28.48s WALL (     748 calls)
     cegterg:last :     72.44s CPU     72.46s WALL (     338 calls)
     h_psi        :    407.68s CPU    409.25s WALL (     904 calls)
     s_psi        :     91.90s CPU     92.03s WALL (     904 calls)
     g_psi        :      0.96s CPU      0.97s WALL (     748 calls)

     Called by h_psi:
     h_psi:calbec :    109.72s CPU    109.77s WALL (     904 calls)
     vloc_psi     :    203.63s CPU    204.42s WALL (     904 calls)
     add_vuspsi   :     93.32s CPU     93.36s WALL (     904 calls)

     General routines
     calbec       :    147.49s CPU    147.54s WALL (    1047 calls)
     fft          :      2.50s CPU      2.50s WALL (     154 calls)
     ffts         :      0.22s CPU      0.22s WALL (      23 calls)
     fftw         :    200.98s CPU    201.67s WALL (   37192 calls)
     interpolate  :      0.34s CPU      0.34s WALL (      12 calls)


     PAW routines
     PAW_pot      :      1.33s CPU      1.33s WALL (      12 calls)
     PAW_symme    :      0.00s CPU      0.00s WALL (      23 calls)

     PWSCF        :  13m41.30s CPU  13m53.38s WALL


   This run was terminated on:  19:33: 2   8Aug2021            

=------------------------------------------------------------------------------=
   JOB DONE.
=------------------------------------------------------------------------------=
