
     Program PWSCF v.6.8 starts on  8Aug2021 at 13: 4:13 

     This program is part of the open-source Quantum ESPRESSO suite
     for quantum simulation of materials; please cite
         "P. Giannozzi et al., J. Phys.:Condens. Matter 21 395502 (2009);
         "P. Giannozzi et al., J. Phys.:Condens. Matter 29 465901 (2017);
         "P. Giannozzi et al., J. Chem. Phys. 152 154105 (2020);
          URL http://www.quantum-espresso.org", 
     in publications or presentations arising from this work. More details at
     http://www.quantum-espresso.org/quote

     Serial version
     2310 MiB available memory on the printing compute node when the environment starts

     Waiting for input...
     Reading input from standard input

     Current dimensions of program PWSCF are:
     Max number of different atomic species (ntypx) = 10
     Max number of k-points (npk) =  40000
     Max angular momentum in pseudopotentials (lmaxx) =  4

     IMPORTANT: XC functional enforced from input :
     Exchange-correlation= PBE
                           (   1   4   3   4   0   0   0)
     Any further DFT definition will be discarded
     Please, verify this is what you really want


     --------------------------------------------
     DFT-D3 Dispersion Correction (3-body terms):
     --------------------------------------------
       Reference C6 values for interpolation: 

         atom   Coordination number   C6
         C          0.000            98.23
         C          0.987            86.49
         C          1.998            58.72
         C          2.999            51.56
         C          3.984            36.41
         Si         0.000           635.71
         Si         0.951           540.53
         Si         1.944           466.25
         Si         2.941           443.01
         Si         3.868           299.55
         Ge         0.000           727.09
         Ge         0.943           633.70
         Ge         1.945           573.31
         Ge         2.919           459.90
         Ge         3.897           360.58

       Values used:

         atom   Coordination number  R0_AB[au]  C6      C8
         C          2.992            2.750     51.37   1485.73
         Ge         3.728            3.649    367.55  33852.72
         C          2.992            2.750     51.37   1485.73
         Ge         3.728            3.649    367.55  33852.72
         C          2.992            2.750     51.37   1485.73
         Ge         3.728            3.649    367.55  33852.72
         C          2.992            2.750     51.37   1485.73
         Ge         3.728            3.649    367.55  33852.72
         C          2.946            2.750     51.53   1490.26
         Si         3.353            3.583    380.22  27195.87
         C          2.946            2.750     51.53   1490.26
         Si         3.353            3.583    380.22  27195.87
         C          2.946            2.750     51.53   1490.26
         Si         3.353            3.583    380.22  27195.87
         C          2.946            2.750     51.53   1490.26
         Si         3.353            3.583    380.22  27195.87

         Molecular C6 ( Ry / a.u.^6 ) =     44591.02

     Found symmetry operation: I + ( -0.5000  0.0000  0.0000)
     This is a supercell, fractional translations are disabled

     G-vector sticks info
     --------------------
     sticks:   dense  smooth     PW     G-vecs:    dense   smooth      PW
     Sum        2161    1735    475               306453   219461   31871

     Using Slab Decomposition



     bravais-lattice index     =            4
     lattice parameter (alat)  =      12.5250  a.u.
     unit-cell volume          =    6418.4032 (a.u.)^3
     number of atoms/cell      =           16
     number of atomic types    =            3
     number of electrons       =        64.00
     number of Kohn-Sham states=           38
     kinetic-energy cutoff     =      40.0000  Ry
     charge density cutoff     =     200.0000  Ry
     scf convergence threshold =      1.0E-06
     mixing beta               =       0.7000
     number of iterations used =            8  plain     mixing
     Exchange-correlation= PBE
                           (   1   4   3   4   0   0   0)

     celldm(1)=  12.525029  celldm(2)=   0.000000  celldm(3)=   3.771900
     celldm(4)=   0.000000  celldm(5)=   0.000000  celldm(6)=   0.000000

     crystal axes: (cart. coord. in units of alat)
               a(1) = (   1.000000   0.000000   0.000000 )  
               a(2) = (  -0.500000   0.866025   0.000000 )  
               a(3) = (   0.000000   0.000000   3.771900 )  

     reciprocal axes: (cart. coord. in units 2 pi/alat)
               b(1) = (  1.000000  0.577350 -0.000000 )  
               b(2) = (  0.000000  1.154701  0.000000 )  
               b(3) = (  0.000000 -0.000000  0.265118 )  


     PseudoPot. # 1 for C  read from file:
     ./pseudo/C.pbe-n-rrkjus_psl.1.0.0.UPF
     MD5 check sum: 1fdd950c42eb37d8afe3dd2f8d12311e
     Pseudo is Ultrasoft + core correction, Zval =  4.0
     Generated using &quot;atomic&quot; code by A. Dal Corso  v.6.3MaX
     Using radial grid of 1073 points,  4 beta functions with: 
                l(1) =   0
                l(2) =   0
                l(3) =   1
                l(4) =   1
     Q(r) pseudized with 0 coefficients 


     PseudoPot. # 2 for Ge read from file:
     ./pseudo/Ge.pbe-n-rrkjus_psl.1.0.0.UPF
     MD5 check sum: a23a7f3f7456476e534e54484b27d8e8
     Pseudo is Ultrasoft + core correction, Zval =  4.0
     Generated using &quot;atomic&quot; code by A. Dal Corso  v.6.3
     Using radial grid of 1207 points,  4 beta functions with: 
                l(1) =   0
                l(2) =   0
                l(3) =   1
                l(4) =   1
     Q(r) pseudized with 0 coefficients 


     PseudoPot. # 3 for Si read from file:
     ./pseudo/Si.pbe-n-rrkjus_psl.1.0.0.UPF
     MD5 check sum: fa25574f73a70a4139f2adfbefec430c
     Pseudo is Ultrasoft + core correction, Zval =  4.0
     Generated using &quot;atomic&quot; code by A. Dal Corso  v.6.3
     Using radial grid of 1141 points,  6 beta functions with: 
                l(1) =   0
                l(2) =   0
                l(3) =   1
                l(4) =   1
                l(5) =   2
                l(6) =   2
     Q(r) pseudized with 0 coefficients 


     atomic species   valence    mass     pseudopotential
        C              4.00    12.01070     C ( 1.00)
        Ge             4.00    72.64000     Ge( 1.00)
        Si             4.00    28.08550     Si( 1.00)

     No symmetry found


                                    s                        frac. trans.

      isym =  1     identity                                     

 cryst.   s( 1) = (     1          0          0      )
                  (     0          1          0      )
                  (     0          0          1      )

 cart.    s( 1) = (  1.0000000  0.0000000  0.0000000 )
                  (  0.0000000  1.0000000  0.0000000 )
                  (  0.0000000  0.0000000  1.0000000 )


     point group C_1 (1)    
     there are  1 classes
     the character table:

       E    
A      1.00

     the symmetry operations in each class and the name of the first element:

     E        1
          identity                                               

   Cartesian axes

     site n.     atom                  positions (alat units)
         1           C   tau(   1) = (   0.1250000   0.0000000   2.1782408  )
         2           Ge  tau(   2) = (  -0.1250000   0.1443376   2.1782408  )
         3           C   tau(   3) = (   0.6250000   0.0000000   2.1782408  )
         4           Ge  tau(   4) = (   0.3750000   0.1443376   2.1782408  )
         5           C   tau(   5) = (   0.3750000   0.4330127   2.1782408  )
         6           Ge  tau(   6) = (   0.1250000   0.5773503   2.1782408  )
         7           C   tau(   7) = (  -0.1250000   0.4330127   2.1782408  )
         8           Ge  tau(   8) = (  -0.3750000   0.5773503   2.1782408  )
         9           C   tau(   9) = (   0.0000000   0.0000000   1.5087599  )
        10           Si  tau(  10) = (   0.0000000   0.2692204   1.5087599  )
        11           C   tau(  11) = (  -0.2500000   0.4330127   1.5087599  )
        12           Si  tau(  12) = (  -0.2500000   0.7022331   1.5087599  )
        13           C   tau(  13) = (   0.5000000   0.0000000   1.5087599  )
        14           Si  tau(  14) = (   0.5000000   0.2692204   1.5087599  )
        15           C   tau(  15) = (   0.2500000   0.4330127   1.5087599  )
        16           Si  tau(  16) = (   0.2500000   0.7022331   1.5087599  )

   Crystallographic axes

     site n.     atom                  positions (cryst. coord.)
         1           C   tau(   1) = (  0.1250000  0.0000000  0.5774917  )
         2           Ge  tau(   2) = ( -0.0416667  0.1666667  0.5774917  )
         3           C   tau(   3) = (  0.6250000  0.0000000  0.5774917  )
         4           Ge  tau(   4) = (  0.4583333  0.1666667  0.5774917  )
         5           C   tau(   5) = (  0.6250000  0.5000000  0.5774917  )
         6           Ge  tau(   6) = (  0.4583333  0.6666667  0.5774917  )
         7           C   tau(   7) = (  0.1250000  0.5000000  0.5774917  )
         8           Ge  tau(   8) = ( -0.0416667  0.6666667  0.5774917  )
         9           C   tau(   9) = (  0.0000000  0.0000000  0.4000000  )
        10           Si  tau(  10) = (  0.1554345  0.3108690  0.4000000  )
        11           C   tau(  11) = (  0.0000000  0.5000000  0.4000000  )
        12           Si  tau(  12) = (  0.1554345  0.8108690  0.4000000  )
        13           C   tau(  13) = (  0.5000000  0.0000000  0.4000000  )
        14           Si  tau(  14) = (  0.6554345  0.3108690  0.4000000  )
        15           C   tau(  15) = (  0.5000000  0.5000000  0.4000000  )
        16           Si  tau(  16) = (  0.6554345  0.8108690  0.4000000  )

     number of k points=    20  Marzari-Vanderbilt smearing, width (Ry)=  0.0500
                       cart. coord. in units 2pi/alat
        k(    1) = (   0.0000000   0.0000000   0.0000000), wk =   0.0555556
        k(    2) = (   0.0000000   0.1924501   0.0000000), wk =   0.1111111
        k(    3) = (   0.0000000   0.3849002   0.0000000), wk =   0.1111111
        k(    4) = (   0.0000000  -0.5773503   0.0000000), wk =   0.0555556
        k(    5) = (   0.1666667   0.2886751   0.0000000), wk =   0.1111111
        k(    6) = (   0.1666667   0.4811252   0.0000000), wk =   0.1111111
        k(    7) = (   0.3333333   0.5773503   0.0000000), wk =   0.1111111
        k(    8) = (  -0.1666667   0.0962250   0.0000000), wk =   0.1111111
        k(    9) = (   0.1666667   0.0962250   0.0000000), wk =   0.1111111
        k(   10) = (  -0.3333333   0.1924501   0.0000000), wk =   0.1111111
        k(   11) = (   0.3333333   0.1924501   0.0000000), wk =   0.1111111
        k(   12) = (   0.5000000  -0.2886751   0.0000000), wk =   0.0555556
        k(   13) = (  -0.5000000  -0.2886751   0.0000000), wk =   0.0555556
        k(   14) = (  -0.1666667   0.2886751   0.0000000), wk =   0.1111111
        k(   15) = (   0.3333333   0.0000000   0.0000000), wk =   0.1111111
        k(   16) = (  -0.1666667   0.4811252   0.0000000), wk =   0.1111111
        k(   17) = (  -0.3333333   0.3849002   0.0000000), wk =   0.1111111
        k(   18) = (   0.5000000   0.0962250   0.0000000), wk =   0.1111111
        k(   19) = (  -0.3333333  -0.3849002   0.0000000), wk =   0.1111111
        k(   20) = (   0.5000000  -0.0962250   0.0000000), wk =   0.1111111

                       cryst. coord.
        k(    1) = (   0.0000000   0.0000000   0.0000000), wk =   0.0555556
        k(    2) = (   0.0000000   0.1666667   0.0000000), wk =   0.1111111
        k(    3) = (   0.0000000   0.3333333   0.0000000), wk =   0.1111111
        k(    4) = (   0.0000000  -0.5000000   0.0000000), wk =   0.0555556
        k(    5) = (   0.1666667   0.1666667   0.0000000), wk =   0.1111111
        k(    6) = (   0.1666667   0.3333333   0.0000000), wk =   0.1111111
        k(    7) = (   0.3333333   0.3333333   0.0000000), wk =   0.1111111
        k(    8) = (  -0.1666667   0.1666667   0.0000000), wk =   0.1111111
        k(    9) = (   0.1666667   0.0000000   0.0000000), wk =   0.1111111
        k(   10) = (  -0.3333333   0.3333333   0.0000000), wk =   0.1111111
        k(   11) = (   0.3333333   0.0000000   0.0000000), wk =   0.1111111
        k(   12) = (   0.5000000  -0.5000000   0.0000000), wk =   0.0555556
        k(   13) = (  -0.5000000   0.0000000   0.0000000), wk =   0.0555556
        k(   14) = (  -0.1666667   0.3333333   0.0000000), wk =   0.1111111
        k(   15) = (   0.3333333  -0.1666667   0.0000000), wk =   0.1111111
        k(   16) = (  -0.1666667   0.5000000   0.0000000), wk =   0.1111111
        k(   17) = (  -0.3333333   0.5000000   0.0000000), wk =   0.1111111
        k(   18) = (   0.5000000  -0.1666667   0.0000000), wk =   0.1111111
        k(   19) = (  -0.3333333  -0.1666667   0.0000000), wk =   0.1111111
        k(   20) = (   0.5000000  -0.3333333   0.0000000), wk =   0.1111111

     Dense  grid:   306453 G-vectors     FFT dimensions: (  60,  60, 216)

     Smooth grid:   219461 G-vectors     FFT dimensions: (  54,  54, 192)

     Dynamical RAM for                 wfc:      15.90 MB

     Dynamical RAM for     wfc (w. buffer):     333.88 MB

     Dynamical RAM for           str. fact:      14.03 MB

     Dynamical RAM for           local pot:       0.00 MB

     Dynamical RAM for          nlocal pot:      70.29 MB

     Dynamical RAM for                qrad:       3.41 MB

     Dynamical RAM for          rho,v,vnew:      31.83 MB

     Dynamical RAM for               rhoin:      10.61 MB

     Dynamical RAM for            rho*nmix:      74.82 MB

     Dynamical RAM for           G-vectors:      19.21 MB

     Dynamical RAM for          h,s,v(r/c):       0.26 MB

     Dynamical RAM for          <psi|beta>:       0.10 MB

     Dynamical RAM for                 psi:      31.80 MB

     Dynamical RAM for                hpsi:      31.80 MB

     Dynamical RAM for                spsi:      31.80 MB

     Dynamical RAM for      wfcinit/wfcrot:      53.65 MB

     Dynamical RAM for           addusdens:     907.16 MB

     Estimated static dynamical RAM per process >     531.62 MB

     Estimated max dynamical RAM per process >       1.48 GB

     Check: negative core charge=   -0.000010

     Initial potential from superposition of free atoms

     starting charge   63.99436, renormalised to   64.00000

     negative rho (up, down):  4.567E-04 0.000E+00
     Starting wfcs are   64 randomized atomic wfcs

     total cpu time spent up to now is       66.4 secs

     Self-consistent Calculation

     iteration #  1     ecut=    40.00 Ry     beta= 0.70
     Davidson diagonalization with overlap

---- Real-time Memory Report at c_bands before calling an iterative solver
           999 MiB given to the printing process from OS
             0 MiB allocation reported by mallinfo(arena+hblkhd)
          1816 MiB available memory on the node where the printing process lives
------------------
     ethr =  1.00E-02,  avg # of iterations =  2.1

     negative rho (up, down):  6.785E-04 0.000E+00

     total cpu time spent up to now is      204.9 secs

     WARNING: integrated charge=    64.00098524, expected=    64.00000000

     total energy              =    -189.43936524 Ry
     estimated scf accuracy    <       4.39451812 Ry

     iteration #  2     ecut=    40.00 Ry     beta= 0.70
     Davidson diagonalization with overlap

---- Real-time Memory Report at c_bands before calling an iterative solver
          1502 MiB given to the printing process from OS
             0 MiB allocation reported by mallinfo(arena+hblkhd)
          1698 MiB available memory on the node where the printing process lives
------------------
     ethr =  6.87E-03,  avg # of iterations =  3.2

     negative rho (up, down):  8.684E-04 0.000E+00

     total cpu time spent up to now is      341.6 secs

     WARNING: integrated charge=    64.00064603, expected=    64.00000000

     total energy              =    -190.66178424 Ry
     estimated scf accuracy    <       4.68425882 Ry

     iteration #  3     ecut=    40.00 Ry     beta= 0.70
     Davidson diagonalization with overlap

---- Real-time Memory Report at c_bands before calling an iterative solver
          1508 MiB given to the printing process from OS
             0 MiB allocation reported by mallinfo(arena+hblkhd)
          1715 MiB available memory on the node where the printing process lives
------------------
     ethr =  6.87E-03,  avg # of iterations =  2.0
     Minimization algorithm failed to find Fermi energy: reverting to bisection
     Possible cause: smearing is larger than the electronic band-gap.

     negative rho (up, down):  5.530E-04 0.000E+00

     total cpu time spent up to now is      448.6 secs

     WARNING: integrated charge=    64.00019400, expected=    64.00000000

     total energy              =    -191.28786928 Ry
     estimated scf accuracy    <       0.09165737 Ry

     iteration #  4     ecut=    40.00 Ry     beta= 0.70
     Davidson diagonalization with overlap

---- Real-time Memory Report at c_bands before calling an iterative solver
          1515 MiB given to the printing process from OS
             0 MiB allocation reported by mallinfo(arena+hblkhd)
          1650 MiB available memory on the node where the printing process lives
------------------
     ethr =  1.43E-04,  avg # of iterations = 10.6

     negative rho (up, down):  6.197E-04 0.000E+00

     total cpu time spent up to now is      638.2 secs

     WARNING: integrated charge=    64.00001918, expected=    64.00000000

     total energy              =    -191.38225174 Ry
     estimated scf accuracy    <       0.08467336 Ry

     iteration #  5     ecut=    40.00 Ry     beta= 0.70
     Davidson diagonalization with overlap

---- Real-time Memory Report at c_bands before calling an iterative solver
          1522 MiB given to the printing process from OS
             0 MiB allocation reported by mallinfo(arena+hblkhd)
          1742 MiB available memory on the node where the printing process lives
------------------
     ethr =  1.32E-04,  avg # of iterations =  2.5
     Minimization algorithm failed to find Fermi energy: reverting to bisection
     Possible cause: smearing is larger than the electronic band-gap.

     negative rho (up, down):  6.905E-04 0.000E+00

     total cpu time spent up to now is      734.1 secs

     total energy              =    -191.37245249 Ry
     estimated scf accuracy    <       0.04648594 Ry

     iteration #  6     ecut=    40.00 Ry     beta= 0.70
     Davidson diagonalization with overlap

---- Real-time Memory Report at c_bands before calling an iterative solver
          1528 MiB given to the printing process from OS
             0 MiB allocation reported by mallinfo(arena+hblkhd)
          1731 MiB available memory on the node where the printing process lives
------------------
     ethr =  7.26E-05,  avg # of iterations = 10.1
     Minimization algorithm failed to find Fermi energy: reverting to bisection
     Possible cause: smearing is larger than the electronic band-gap.

     negative rho (up, down):  7.261E-04 0.000E+00

     total cpu time spent up to now is      847.4 secs

     WARNING: integrated charge=    64.00002777, expected=    64.00000000

     total energy              =    -191.36830622 Ry
     estimated scf accuracy    <       0.02513325 Ry

     iteration #  7     ecut=    40.00 Ry     beta= 0.70
     Davidson diagonalization with overlap

---- Real-time Memory Report at c_bands before calling an iterative solver
          1535 MiB given to the printing process from OS
             0 MiB allocation reported by mallinfo(arena+hblkhd)
          1731 MiB available memory on the node where the printing process lives
------------------
     ethr =  3.93E-05,  avg # of iterations =  2.5
     Minimization algorithm failed to find Fermi energy: reverting to bisection
     Possible cause: smearing is larger than the electronic band-gap.

     negative rho (up, down):  7.378E-04 0.000E+00

     total cpu time spent up to now is      957.1 secs

     WARNING: integrated charge=    64.00001353, expected=    64.00000000

     total energy              =    -191.37273813 Ry
     estimated scf accuracy    <       0.00073448 Ry

     iteration #  8     ecut=    40.00 Ry     beta= 0.70
     Davidson diagonalization with overlap

---- Real-time Memory Report at c_bands before calling an iterative solver
          1542 MiB given to the printing process from OS
             0 MiB allocation reported by mallinfo(arena+hblkhd)
          1547 MiB available memory on the node where the printing process lives
------------------
     c_bands:  1 eigenvalues not converged
     c_bands:  1 eigenvalues not converged
     ethr =  1.15E-06,  avg # of iterations = 13.0
     Minimization algorithm failed to find Fermi energy: reverting to bisection
     Possible cause: smearing is larger than the electronic band-gap.

     negative rho (up, down):  7.355E-04 0.000E+00

     total cpu time spent up to now is     1136.7 secs

     total energy              =    -191.37301419 Ry
     estimated scf accuracy    <       0.00150930 Ry

     iteration #  9     ecut=    40.00 Ry     beta= 0.70
     Davidson diagonalization with overlap

---- Real-time Memory Report at c_bands before calling an iterative solver
          1549 MiB given to the printing process from OS
             0 MiB allocation reported by mallinfo(arena+hblkhd)
          1516 MiB available memory on the node where the printing process lives
------------------
     ethr =  1.15E-06,  avg # of iterations =  2.0
     Minimization algorithm failed to find Fermi energy: reverting to bisection
     Possible cause: smearing is larger than the electronic band-gap.

     negative rho (up, down):  7.302E-04 0.000E+00

     total cpu time spent up to now is     1231.1 secs

     total energy              =    -191.37294186 Ry
     estimated scf accuracy    <       0.00047212 Ry

     iteration # 10     ecut=    40.00 Ry     beta= 0.70
     Davidson diagonalization with overlap

---- Real-time Memory Report at c_bands before calling an iterative solver
          1555 MiB given to the printing process from OS
             0 MiB allocation reported by mallinfo(arena+hblkhd)
          1503 MiB available memory on the node where the printing process lives
------------------
     ethr =  7.38E-07,  avg # of iterations =  2.0
     Minimization algorithm failed to find Fermi energy: reverting to bisection
     Possible cause: smearing is larger than the electronic band-gap.

     negative rho (up, down):  7.310E-04 0.000E+00

     total cpu time spent up to now is     1327.4 secs

     total energy              =    -191.37296225 Ry
     estimated scf accuracy    <       0.00005989 Ry

     iteration # 11     ecut=    40.00 Ry     beta= 0.70
     Davidson diagonalization with overlap

---- Real-time Memory Report at c_bands before calling an iterative solver
          1555 MiB given to the printing process from OS
             0 MiB allocation reported by mallinfo(arena+hblkhd)
          1509 MiB available memory on the node where the printing process lives
------------------
     ethr =  9.36E-08,  avg # of iterations =  4.2
     Minimization algorithm failed to find Fermi energy: reverting to bisection
     Possible cause: smearing is larger than the electronic band-gap.

     negative rho (up, down):  7.340E-04 0.000E+00

     total cpu time spent up to now is     1460.9 secs

     total energy              =    -191.37298629 Ry
     estimated scf accuracy    <       0.00001765 Ry

     iteration # 12     ecut=    40.00 Ry     beta= 0.70
     Davidson diagonalization with overlap

---- Real-time Memory Report at c_bands before calling an iterative solver
          1555 MiB given to the printing process from OS
             0 MiB allocation reported by mallinfo(arena+hblkhd)
          1494 MiB available memory on the node where the printing process lives
------------------
     ethr =  2.76E-08,  avg # of iterations =  1.1
     Minimization algorithm failed to find Fermi energy: reverting to bisection
     Possible cause: smearing is larger than the electronic band-gap.

     negative rho (up, down):  7.348E-04 0.000E+00

     total cpu time spent up to now is     1547.4 secs

     total energy              =    -191.37298675 Ry
     estimated scf accuracy    <       0.00000353 Ry

     iteration # 13     ecut=    40.00 Ry     beta= 0.70
     Davidson diagonalization with overlap

---- Real-time Memory Report at c_bands before calling an iterative solver
          1555 MiB given to the printing process from OS
             0 MiB allocation reported by mallinfo(arena+hblkhd)
          1481 MiB available memory on the node where the printing process lives
------------------
     ethr =  5.52E-09,  avg # of iterations =  1.6
     Minimization algorithm failed to find Fermi energy: reverting to bisection
     Possible cause: smearing is larger than the electronic band-gap.

     negative rho (up, down):  7.354E-04 0.000E+00

     total cpu time spent up to now is     1637.4 secs

     End of self-consistent calculation

          k = 0.0000 0.0000 0.0000 ( 27479 PWs)   bands (ev):

   -16.0125 -15.2575 -13.2237 -13.2231 -13.2227 -12.9543 -12.9536 -12.6785
   -10.7745 -10.7727 -10.7725 -10.3318  -9.6464  -9.6459  -5.9571  -5.4176
    -5.4171  -5.4163  -5.4145  -5.3929  -5.3924  -4.9280  -4.4788  -3.6331
    -3.6329  -3.3325  -3.2465  -3.1441  -3.0714  -3.0217  -2.9015  -2.7133
    -0.7574  -0.3424  -0.2324  -0.2070   0.1227   0.1992

     occupation numbers 
     1.0000   1.0000   1.0000   1.0000   1.0000   1.0000   1.0000   1.0000
     1.0000   1.0000   1.0000   1.0000   1.0000   1.0000   1.0000   1.0000
     1.0000   1.0000   1.0000   1.0000   1.0000   1.0000   1.0003   1.0332
     1.0333   1.0725   1.0805   1.0830   1.0776   1.0696   1.0327   0.9190
     0.0002   0.0000   0.0000   0.0000   0.0000   0.0000

          k = 0.0000 0.1925 0.0000 ( 27436 PWs)   bands (ev):

   -15.9084 -15.1589 -13.6617 -13.2848 -13.2843 -13.0695 -12.9878 -12.9874
   -10.5733 -10.5730 -10.1555  -9.7936  -9.4630  -9.4626  -5.8477  -5.8164
    -5.8162  -5.7735  -5.7730  -5.3256  -5.3108  -4.9556  -4.8491  -4.3317
    -3.7978  -3.5111  -3.4857  -3.2878  -3.2210  -3.1187  -3.0167  -2.9366
    -0.1538  -0.0661  -0.0619   0.0115   0.3249   0.3400

     occupation numbers 
     1.0000   1.0000   1.0000   1.0000   1.0000   1.0000   1.0000   1.0000
     1.0000   1.0000   1.0000   1.0000   1.0000   1.0000   1.0000   1.0000
     1.0000   1.0000   1.0000   1.0000   1.0000   1.0000   1.0000   1.0008
     1.0174   1.0488   1.0523   1.0772   1.0820   1.0819   1.0686   1.0463
     0.0000   0.0000   0.0000   0.0000   0.0000   0.0000

          k = 0.0000 0.3849 0.0000 ( 27422 PWs)   bands (ev):

   -15.5988 -14.8660 -14.4168 -13.7607 -13.3918 -13.3916 -13.0506 -13.0504
   -10.1267 -10.1265  -9.0046  -9.0044  -8.8710  -8.6721  -6.5859  -6.5840
    -6.5502  -6.5481  -6.0604  -5.7670  -5.5174  -5.0634  -4.9983  -4.6203
    -4.2866  -4.1990  -3.8521  -3.8358  -3.3624  -3.3353  -3.0374  -3.0045
     0.2543   0.2910   0.5715   0.5788   0.6258   0.8218

     occupation numbers 
     1.0000   1.0000   1.0000   1.0000   1.0000   1.0000   1.0000   1.0000
     1.0000   1.0000   1.0000   1.0000   1.0000   1.0000   1.0000   1.0000
     1.0000   1.0000   1.0000   1.0000   1.0000   1.0000   1.0000   1.0001
     1.0012   1.0020   1.0136   1.0147   1.0689   1.0722   1.0725   1.0659
     0.0000   0.0000   0.0000   0.0000   0.0000   0.0000

          k = 0.0000-0.5774 0.0000 ( 27446 PWs)   bands (ev):

   -15.0928 -15.0928 -14.3902 -14.3902 -13.4395 -13.4395 -13.0800 -13.0799
    -9.8556  -9.8556  -8.6672  -8.6672  -7.3772  -7.3772  -7.3428  -7.3428
    -7.0264  -7.0264  -6.9845  -6.9845  -4.9894  -4.9894  -4.6640  -4.6639
    -4.4967  -4.4966  -4.2683  -4.2682  -3.3901  -3.3901  -3.0448  -3.0448
     0.4647   0.4647   0.7335   0.7335   0.9173   0.9173

     occupation numbers 
     1.0000   1.0000   1.0000   1.0000   1.0000   1.0000   1.0000   1.0000
     1.0000   1.0000   1.0000   1.0000   1.0000   1.0000   1.0000   1.0000
     1.0000   1.0000   1.0000   1.0000   1.0000   1.0000   1.0001   1.0001
     1.0003   1.0003   1.0013   1.0013   1.0654   1.0654   1.0738   1.0738
     0.0000   0.0000   0.0000   0.0000   0.0000   0.0000

          k = 0.1667 0.2887 0.0000 ( 27463 PWs)   bands (ev):

   -15.7015 -14.9665 -13.9665 -13.9661 -13.4876 -13.3557 -12.9611 -12.7465
   -10.6926  -9.5537  -9.5519  -9.5153  -9.2469  -8.6330  -6.7195  -6.5655
    -5.6639  -5.6459  -5.6140  -5.6128  -5.5785  -5.3123  -5.1138  -5.1010
    -4.1490  -3.9166  -3.9004  -3.8233  -3.5019  -3.4105  -2.8977  -2.7531
    -0.2309   0.1636   0.3862   0.4508   0.7448   0.8495

     occupation numbers 
     1.0000   1.0000   1.0000   1.0000   1.0000   1.0000   1.0000   1.0000
     1.0000   1.0000   1.0000   1.0000   1.0000   1.0000   1.0000   1.0000
     1.0000   1.0000   1.0000   1.0000   1.0000   1.0000   1.0000   1.0000
     1.0028   1.0100   1.0108   1.0155   1.0501   1.0626   1.0312   0.9488
     0.0000   0.0000   0.0000   0.0000   0.0000   0.0000

          k = 0.1667 0.4811 0.0000 ( 27414 PWs)   bands (ev):

   -15.2932 -14.6990 -14.5825 -14.1311 -14.0286 -13.6203 -12.8059 -12.6333
   -10.5740  -9.2944  -9.0090  -8.1736  -8.0464  -8.0182  -7.4276  -7.2837
    -6.7789  -6.6920  -6.3100  -6.1673  -5.2290  -5.2009  -4.7769  -4.7050
    -4.6971  -4.5798  -4.3320  -4.1150  -4.0533  -3.6472  -2.7898  -2.5514
    -0.1927   0.1319   0.9974   1.2081   1.2849   1.4430

     occupation numbers 
     1.0000   1.0000   1.0000   1.0000   1.0000   1.0000   1.0000   1.0000
     1.0000   1.0000   1.0000   1.0000   1.0000   1.0000   1.0000   1.0000
     1.0000   1.0000   1.0000   1.0000   1.0000   1.0000   1.0000   1.0000
     1.0001   1.0001   1.0008   1.0034   1.0048   1.0316   0.9736   0.7709
     0.0000   0.0000   0.0000   0.0000   0.0000   0.0000

          k = 0.3333 0.5774 0.0000 ( 27354 PWs)   bands (ev):

   -14.7949 -14.7948 -14.7948 -14.1768 -14.1334 -14.1333 -12.5095 -12.3922
   -10.7857  -9.6158  -7.8068  -7.8054  -7.8050  -7.7635  -7.6105  -7.6097
    -7.4125  -6.9403  -5.8232  -5.4932  -5.4931  -5.4930  -5.1188  -5.1188
    -4.7079  -4.6887  -4.6851  -4.2553  -4.2221  -4.2185  -2.4773  -2.2775
    -0.4757  -0.1985   1.5181   1.5183   1.5295   1.8680

     occupation numbers 
     1.0000   1.0000   1.0000   1.0000   1.0000   1.0000   1.0000   1.0000
     1.0000   1.0000   1.0000   1.0000   1.0000   1.0000   1.0000   1.0000
     1.0000   1.0000   1.0000   1.0000   1.0000   1.0000   1.0000   1.0000
     1.0000   1.0001   1.0001   1.0014   1.0018   1.0018   0.6927   0.4734
     0.0000   0.0000   0.0000   0.0000   0.0000   0.0000

          k =-0.1667 0.0962 0.0000 ( 27436 PWs)   bands (ev):

   -15.9085 -15.1620 -13.6620 -13.2847 -13.2839 -13.2504 -12.9722 -12.7478
   -10.5748 -10.5731 -10.1540 -10.1316  -9.5149  -9.1964  -5.8487  -5.8153
    -5.8147  -5.7280  -5.3291  -5.3196  -5.3135  -5.2912  -4.7247  -4.3316
    -3.7979  -3.7579  -3.5804  -3.2882  -3.2757  -3.1326  -2.9285  -2.7762
    -0.5609  -0.0797   0.0229   0.1828   0.1885   0.2866

     occupation numbers 
     1.0000   1.0000   1.0000   1.0000   1.0000   1.0000   1.0000   1.0000
     1.0000   1.0000   1.0000   1.0000   1.0000   1.0000   1.0000   1.0000
     1.0000   1.0000   1.0000   1.0000   1.0000   1.0000   1.0000   1.0008
     1.0174   1.0206   1.0397   1.0771   1.0783   1.0826   1.0434   0.9647
     0.0000   0.0000   0.0000   0.0000   0.0000   0.0000

          k = 0.1667 0.0962 0.0000 ( 27436 PWs)   bands (ev):

   -15.9085 -15.1620 -13.6622 -13.2843 -13.2839 -13.2502 -12.9727 -12.7478
   -10.5749 -10.5734 -10.1537 -10.1316  -9.5153  -9.1960  -5.8488  -5.8154
    -5.8147  -5.7277  -5.3302  -5.3186  -5.3133  -5.2912  -4.7246  -4.3315
    -3.7981  -3.7579  -3.6187  -3.2423  -3.2035  -3.1313  -3.0141  -2.7772
    -0.5674  -0.0862   0.0190   0.1904   0.2024   0.3124

     occupation numbers 
     1.0000   1.0000   1.0000   1.0000   1.0000   1.0000   1.0000   1.0000
     1.0000   1.0000   1.0000   1.0000   1.0000   1.0000   1.0000   1.0000
     1.0000   1.0000   1.0000   1.0000   1.0000   1.0000   1.0000   1.0009
     1.0174   1.0206   1.0349   1.0808   1.0827   1.0825   1.0680   0.9654
     0.0000   0.0000   0.0000   0.0000   0.0000   0.0000

          k =-0.3333 0.1925 0.0000 ( 27422 PWs)   bands (ev):

   -15.5988 -14.8797 -14.4170 -13.8452 -13.3917 -13.3913 -12.9970 -12.8803
   -10.1278 -10.1268  -9.6587  -9.2479  -8.8695  -8.1534  -6.5816  -6.5814
    -6.3376  -6.0198  -5.7688  -5.6128  -5.5127  -5.1185  -5.0629  -5.0104
    -4.3677  -4.3208  -4.1988  -3.9103  -3.3247  -3.2504  -2.9708  -2.8918
    -0.1185   0.2469   0.4095   0.4289   0.4642   0.5373

     occupation numbers 
     1.0000   1.0000   1.0000   1.0000   1.0000   1.0000   1.0000   1.0000
     1.0000   1.0000   1.0000   1.0000   1.0000   1.0000   1.0000   1.0000
     1.0000   1.0000   1.0000   1.0000   1.0000   1.0000   1.0000   1.0000
     1.0007   1.0009   1.0020   1.0103   1.0734   1.0803   1.0572   1.0286
     0.0000   0.0000   0.0000   0.0000   0.0000   0.0000

          k = 0.3333 0.1925 0.0000 ( 27422 PWs)   bands (ev):

   -15.5988 -14.8797 -14.4170 -13.8452 -13.3915 -13.3912 -12.9972 -12.8803
   -10.1281 -10.1272  -9.6586  -9.2480  -8.8691  -8.1531  -6.5819  -6.5815
    -6.3370  -6.0197  -5.7671  -5.6113  -5.5160  -5.1187  -5.0628  -5.0098
    -4.3676  -4.3312  -4.1989  -3.8983  -3.2884  -3.2444  -3.0134  -2.8977
    -0.1514   0.1378   0.4507   0.4683   0.5233   0.5421

     occupation numbers 
     1.0000   1.0000   1.0000   1.0000   1.0000   1.0000   1.0000   1.0000
     1.0000   1.0000   1.0000   1.0000   1.0000   1.0000   1.0000   1.0000
     1.0000   1.0000   1.0000   1.0000   1.0000   1.0000   1.0000   1.0000
     1.0007   1.0009   1.0020   1.0109   1.0771   1.0807   1.0679   1.0311
     0.0000   0.0000   0.0000   0.0000   0.0000   0.0000

          k = 0.5000-0.2887 0.0000 ( 27446 PWs)   bands (ev):

   -15.0929 -15.0928 -14.4269 -14.4269 -13.4393 -13.4392 -12.9744 -12.9744
    -9.8562  -9.8562  -9.2363  -9.2363  -7.3504  -7.3504  -6.9867  -6.9867
    -6.8754  -6.8754  -6.5223  -6.5223  -5.0039  -5.0039  -4.7964  -4.7964
    -4.6637  -4.6637  -4.5292  -4.5292  -3.3262  -3.3262  -2.9668  -2.9667
     0.2731   0.2731   0.5088   0.5088   0.6871   0.6871

     occupation numbers 
     1.0000   1.0000   1.0000   1.0000   1.0000   1.0000   1.0000   1.0000
     1.0000   1.0000   1.0000   1.0000   1.0000   1.0000   1.0000   1.0000
     1.0000   1.0000   1.0000   1.0000   1.0000   1.0000   1.0000   1.0000
     1.0001   1.0001   1.0002   1.0002   1.0732   1.0732   1.0560   1.0560
     0.0000   0.0000   0.0000   0.0000   0.0000   0.0000

          k =-0.5000-0.2887 0.0000 ( 27446 PWs)   bands (ev):

   -15.0929 -15.0929 -14.4269 -14.4269 -13.4392 -13.4392 -12.9745 -12.9745
    -9.8567  -9.8567  -9.2360  -9.2360  -7.3498  -7.3498  -6.9869  -6.9869
    -6.8751  -6.8751  -6.5219  -6.5219  -5.0074  -5.0074  -4.7964  -4.7964
    -4.6637  -4.6637  -4.5258  -4.5258  -3.3101  -3.3100  -2.9847  -2.9847
     0.1668   0.1668   0.6340   0.6340   0.6652   0.6652

     occupation numbers 
     1.0000   1.0000   1.0000   1.0000   1.0000   1.0000   1.0000   1.0000
     1.0000   1.0000   1.0000   1.0000   1.0000   1.0000   1.0000   1.0000
     1.0000   1.0000   1.0000   1.0000   1.0000   1.0000   1.0000   1.0000
     1.0001   1.0001   1.0002   1.0002   1.0750   1.0750   1.0610   1.0610
     0.0000   0.0000   0.0000   0.0000   0.0000   0.0000

          k =-0.1667 0.2887 0.0000 ( 27463 PWs)   bands (ev):

   -15.7015 -14.9665 -13.9664 -13.9661 -13.4877 -13.3557 -12.9618 -12.7458
   -10.6924  -9.5535  -9.5522  -9.5150  -9.2470  -8.6334  -6.7190  -6.5663
    -5.6639  -5.6477  -5.6140  -5.6125  -5.5769  -5.3125  -5.1137  -5.1012
    -4.1488  -3.9166  -3.8829  -3.8254  -3.5228  -3.4084  -2.9806  -2.6560
    -0.1921   0.0951   0.4033   0.4573   0.7170   0.8590

     occupation numbers 
     1.0000   1.0000   1.0000   1.0000   1.0000   1.0000   1.0000   1.0000
     1.0000   1.0000   1.0000   1.0000   1.0000   1.0000   1.0000   1.0000
     1.0000   1.0000   1.0000   1.0000   1.0000   1.0000   1.0000   1.0000
     1.0028   1.0100   1.0118   1.0154   1.0472   1.0629   1.0599   0.8711
     0.0000   0.0000   0.0000   0.0000   0.0000   0.0000

          k = 0.3333 0.0000 0.0000 ( 27463 PWs)   bands (ev):

   -15.7016 -14.9760 -13.9665 -13.9663 -13.4611 -13.4609 -12.9609 -12.5269
   -10.6940 -10.1244  -9.5525  -9.5521  -8.7828  -8.7825  -6.7185  -6.1409
    -5.6365  -5.6144  -5.6143  -5.5112  -5.5109  -5.3126  -5.1127  -4.9335
    -4.6411  -4.1490  -3.8845  -3.8645  -3.5067  -3.4830  -2.8171  -2.5125
    -0.6811   0.0067   0.4800   0.6638   0.7303   0.8054

     occupation numbers 
     1.0000   1.0000   1.0000   1.0000   1.0000   1.0000   1.0000   1.0000
     1.0000   1.0000   1.0000   1.0000   1.0000   1.0000   1.0000   1.0000
     1.0000   1.0000   1.0000   1.0000   1.0000   1.0000   1.0000   1.0000
     1.0001   1.0028   1.0117   1.0128   1.0494   1.0527   0.9904   0.7304
     0.0001   0.0000   0.0000   0.0000   0.0000   0.0000

          k =-0.1667 0.4811 0.0000 ( 27414 PWs)   bands (ev):

   -15.2932 -14.6990 -14.5825 -14.1311 -14.0286 -13.6204 -12.8063 -12.6329
   -10.5738  -9.2943  -9.0091  -8.1729  -8.0470  -8.0183  -7.4270  -7.2845
    -6.7803  -6.6910  -6.3101  -6.1670  -5.2289  -5.2000  -4.7764  -4.7105
    -4.6926  -4.5819  -4.3318  -4.1134  -4.0483  -3.6532  -2.8189  -2.5167
    -0.1432   0.0666   0.9998   1.1727   1.2972   1.4873

     occupation numbers 
     1.0000   1.0000   1.0000   1.0000   1.0000   1.0000   1.0000   1.0000
     1.0000   1.0000   1.0000   1.0000   1.0000   1.0000   1.0000   1.0000
     1.0000   1.0000   1.0000   1.0000   1.0000   1.0000   1.0000   1.0000
     1.0001   1.0001   1.0008   1.0034   1.0050   1.0309   0.9914   0.7349
     0.0000   0.0000   0.0000   0.0000   0.0000   0.0000

          k =-0.3333 0.3849 0.0000 ( 27414 PWs)   bands (ev):

   -15.2932 -14.6992 -14.5945 -14.1309 -14.0922 -13.5293 -12.8060 -12.5745
   -10.5741  -9.5260  -9.0099  -8.6913  -8.1713  -7.4266  -7.4257  -7.0989
    -6.6946  -6.5595  -6.1676  -5.6634  -5.4175  -5.2285  -5.2043  -4.7147
    -4.6992  -4.6087  -4.5631  -4.1684  -4.0044  -3.5786  -2.7689  -2.4822
    -0.1619  -0.1032   0.8979   0.9103   1.0035   1.2936

     occupation numbers 
     1.0000   1.0000   1.0000   1.0000   1.0000   1.0000   1.0000   1.0000
     1.0000   1.0000   1.0000   1.0000   1.0000   1.0000   1.0000   1.0000
     1.0000   1.0000   1.0000   1.0000   1.0000   1.0000   1.0000   1.0000
     1.0000   1.0001   1.0002   1.0025   1.0063   1.0399   0.9598   0.6980
     0.0000   0.0000   0.0000   0.0000   0.0000   0.0000

          k = 0.5000 0.0962 0.0000 ( 27414 PWs)   bands (ev):

   -15.2932 -14.6991 -14.6107 -14.1309 -14.0692 -13.5635 -12.8055 -12.4872
   -10.5750  -9.8038  -9.0100  -8.4871  -8.1712  -7.6970  -7.4267  -6.8962
    -6.6927  -6.1679  -6.0903  -5.8461  -5.2291  -5.2142  -5.1201  -5.0853
    -4.7234  -4.7022  -4.6023  -4.1446  -4.0127  -3.6152  -2.6815  -2.4415
    -0.5044   0.0076   0.9323   0.9549   0.9664   1.3787

     occupation numbers 
     1.0000   1.0000   1.0000   1.0000   1.0000   1.0000   1.0000   1.0000
     1.0000   1.0000   1.0000   1.0000   1.0000   1.0000   1.0000   1.0000
     1.0000   1.0000   1.0000   1.0000   1.0000   1.0000   1.0000   1.0000
     1.0000   1.0000   1.0001   1.0028   1.0061   1.0353   0.8932   0.6536
     0.0000   0.0000   0.0000   0.0000   0.0000   0.0000

          k =-0.3333-0.3849 0.0000 ( 27414 PWs)   bands (ev):

   -15.2932 -14.6992 -14.5945 -14.1308 -14.0921 -13.5293 -12.8057 -12.5749
   -10.5744  -9.5260  -9.0106  -8.6909  -8.1710  -7.4271  -7.4254  -7.0983
    -6.6929  -6.5603  -6.1677  -5.6633  -5.4178  -5.2288  -5.2064  -4.7097
    -4.7023  -4.6130  -4.5633  -4.1633  -3.9992  -3.5842  -2.7184  -2.5391
    -0.3135   0.0723   0.8494   0.8837   0.9835   1.3598

     occupation numbers 
     1.0000   1.0000   1.0000   1.0000   1.0000   1.0000   1.0000   1.0000
     1.0000   1.0000   1.0000   1.0000   1.0000   1.0000   1.0000   1.0000
     1.0000   1.0000   1.0000   1.0000   1.0000   1.0000   1.0000   1.0000
     1.0000   1.0001   1.0002   1.0025   1.0065   1.0392   0.9230   0.7583
     0.0000   0.0000   0.0000   0.0000   0.0000   0.0000

          k = 0.5000-0.0962 0.0000 ( 27414 PWs)   bands (ev):

   -15.2932 -14.6991 -14.6107 -14.1310 -14.0693 -13.5634 -12.8056 -12.4871
   -10.5748  -9.8040  -9.0093  -8.4872  -8.1719  -7.6970  -7.4266  -6.8964
    -6.6930  -6.1676  -6.0907  -5.8465  -5.2292  -5.2119  -5.1198  -5.0861
    -4.7232  -4.7034  -4.5962  -4.1513  -4.0230  -3.6033  -2.6950  -2.4281
    -0.4600  -0.0442   0.9471   0.9687   1.0978   1.2391

     occupation numbers 
     1.0000   1.0000   1.0000   1.0000   1.0000   1.0000   1.0000   1.0000
     1.0000   1.0000   1.0000   1.0000   1.0000   1.0000   1.0000   1.0000
     1.0000   1.0000   1.0000   1.0000   1.0000   1.0000   1.0000   1.0000
     1.0000   1.0000   1.0001   1.0027   1.0057   1.0368   0.9044   0.6388
     0.0000   0.0000   0.0000   0.0000   0.0000   0.0000

     the Fermi energy is    -2.2074 ev

!    total energy              =    -191.37298623 Ry
     estimated scf accuracy    <       0.00000094 Ry
     smearing contrib. (-TS)   =       0.04149187 Ry
     internal energy E=F+TS    =    -191.41447811 Ry

     The total energy is F=E-TS. E is the sum of the following terms:
     one-electron contribution =   -1440.86761792 Ry
     hartree contribution      =     732.90935558 Ry
     xc contribution           =     -86.60592136 Ry
     ewald contribution        =     603.22357851 Ry
     DFT-D3 Dispersion         =      -0.07387292 Ry

     convergence has been achieved in  13 iterations

     Writing output data file ./work/sic_gec+22.save/

     init_run     :     65.77s CPU     66.20s WALL (       1 calls)
     electrons    :   1564.84s CPU   1571.06s WALL (       1 calls)

     Called by init_run:
     wfcinit      :     62.27s CPU     62.53s WALL (       1 calls)
     wfcinit:atom :      0.21s CPU      0.30s WALL (      20 calls)
     wfcinit:wfcr :     60.19s CPU     60.30s WALL (      20 calls)
     potinit      :      0.82s CPU      0.84s WALL (       1 calls)
     hinit0       :      1.01s CPU      1.02s WALL (       1 calls)

     Called by electrons:
     c_bands      :   1356.37s CPU   1359.10s WALL (      13 calls)
     sum_band     :    184.12s CPU    185.83s WALL (      13 calls)
     v_of_rho     :      4.86s CPU      4.97s WALL (      14 calls)
     v_h          :      0.31s CPU      0.32s WALL (      14 calls)
     v_xc         :      4.54s CPU      4.65s WALL (      14 calls)
     newd         :     19.78s CPU     21.53s WALL (      14 calls)
     mix_rho      :      1.00s CPU      1.01s WALL (      13 calls)
     energy_dftd3 :      0.08s CPU      0.08s WALL (       1 calls)

     Called by c_bands:
     init_us_2    :      9.67s CPU      9.70s WALL (     540 calls)
     cegterg      :   1330.26s CPU   1332.82s WALL (     260 calls)

     Called by sum_band:
     sum_band:wei :      0.02s CPU      0.02s WALL (      13 calls)
     sum_band:loo :    164.65s CPU    164.72s WALL (      13 calls)
     sum_band:buf :      0.77s CPU      0.77s WALL (     260 calls)
     sum_band:ini :      4.62s CPU      4.62s WALL (     260 calls)
     sum_band:cal :     71.48s CPU     71.50s WALL (     260 calls)
     sum_band:bec :      0.04s CPU      0.04s WALL (     260 calls)
     addusdens    :     18.98s CPU     20.61s WALL (      13 calls)
     addusd:skk   :      0.18s CPU      0.22s WALL (      39 calls)
     addusd:dgemm :      8.73s CPU     10.20s WALL (      39 calls)
     addusd:qvan2 :      8.94s CPU      8.96s WALL (      39 calls)

     Called by *egterg:
     cdiaghg      :      2.40s CPU      2.41s WALL (    1399 calls)
     cegterg:over :    105.07s CPU    105.11s WALL (    1139 calls)
     cegterg:upda :     53.20s CPU     53.25s WALL (    1139 calls)
     cegterg:last :    132.48s CPU    132.69s WALL (     598 calls)
     h_psi        :    870.23s CPU    871.63s WALL (    1419 calls)
     s_psi        :    177.76s CPU    177.90s WALL (    1419 calls)
     g_psi        :      1.82s CPU      1.82s WALL (    1139 calls)

     Called by h_psi:
     h_psi:calbec :    205.69s CPU    205.72s WALL (    1419 calls)
     vloc_psi     :    485.76s CPU    486.37s WALL (    1419 calls)
     add_vuspsi   :    176.98s CPU    177.07s WALL (    1419 calls)

     General routines
     calbec       :    277.16s CPU    277.22s WALL (    1679 calls)
     fft          :      2.80s CPU      2.80s WALL (     180 calls)
     ffts         :      0.33s CPU      0.33s WALL (      27 calls)
     fftw         :    489.49s CPU    490.02s WALL (   65944 calls)
     interpolate  :      0.45s CPU      0.45s WALL (      14 calls)


     PWSCF        :  27m11.09s CPU  27m18.98s WALL


   This run was terminated on:  13:31:32   8Aug2021            

=------------------------------------------------------------------------------=
   JOB DONE.
=------------------------------------------------------------------------------=
