
     Program PWSCF v.6.3 starts on 19Apr2020 at  9:25:22 

     This program is part of the open-source Quantum ESPRESSO suite
     for quantum simulation of materials; please cite
         "P. Giannozzi et al., J. Phys.:Condens. Matter 21 395502 (2009);
         "P. Giannozzi et al., J. Phys.:Condens. Matter 29 465901 (2017);
          URL http://www.quantum-espresso.org", 
     in publications or presentations arising from this work. More details at
     http://www.quantum-espresso.org/quote

     Parallel version (MPI), running on     1 processors

     MPI processes distributed on     1 nodes
     Reading input from /home/nano3/Desktop/RAYID/Ge+SiC/Ge+SiC_I/Ge+SiC_I__4.5.scf.in

     Current dimensions of program PWSCF are:
     Max number of different atomic species (ntypx) = 10
     Max number of k-points (npk) =  40000
     Max angular momentum in pseudopotentials (lmaxx) =  3

     IMPORTANT: XC functional enforced from input :
     Exchange-correlation      = PBE ( 1  4  3  4 0 0)
     Any further DFT definition will be discarded
     Please, verify this is what you really want

               file Ge.pbe-mt_fhi.UPF: wavefunction(s)  4d 4f renormalized
               file C.pbe-mt_fhi.UPF: wavefunction(s)  4f renormalized
               file Si.pbe-mt_fhi.UPF: wavefunction(s)  4f renormalized

     -------------------------------------------------
     Parameters for Dispersion (Grimme-D2) Correction:
     -------------------------------------------------
       atom      VdW radius       C_6     

        Ge         3.264        593.221
        C          2.744         60.710
        Si         3.243        320.200

     Subspace diagonalization in iterative solution of the eigenvalue problem:
     a serial algorithm will be used


     G-vector sticks info
     --------------------
     sticks:   dense  smooth     PW     G-vecs:    dense   smooth      PW
     Sum        4429    4429   1177               388955   388955   53541



     bravais-lattice index     =            4
     lattice parameter (alat)  =      23.1302  a.u.
     unit-cell volume          =   17511.3678 (a.u.)^3
     number of atoms/cell      =           50
     number of atomic types    =            3
     number of electrons       =       200.00
     number of Kohn-Sham states=          120
     kinetic-energy cutoff     =      30.0000  Ry
     charge density cutoff     =     120.0000  Ry
     convergence threshold     =      1.0E-04
     mixing beta               =       0.7000
     number of iterations used =            8  plain     mixing
     Exchange-correlation      = PBE ( 1  4  3  4 0 0)

     celldm(1)=  23.130248  celldm(2)=   0.000000  celldm(3)=   1.633987
     celldm(4)=   0.000000  celldm(5)=   0.000000  celldm(6)=   0.000000

     crystal axes: (cart. coord. in units of alat)
               a(1) = (   1.000000   0.000000   0.000000 )  
               a(2) = (  -0.500000   0.866025   0.000000 )  
               a(3) = (   0.000000   0.000000   1.633987 )  

     reciprocal axes: (cart. coord. in units 2 pi/alat)
               b(1) = (  1.000000  0.577350 -0.000000 )  
               b(2) = (  0.000000  1.154701  0.000000 )  
               b(3) = (  0.000000 -0.000000  0.612000 )  


     PseudoPot. # 1 for Ge read from file:
     /home/nano3/Desktop/RAYID/qe-6.3/bin/pseudo/Ge.pbe-mt_fhi.UPF
     MD5 check sum: b08ff19c3d362044f6e29226b459d86a
     Pseudo is Norm-conserving, Zval =  4.0
     Generated using FHI98PP, converted with fhi2upf.x v.5.0.2
     Using radial grid of  529 points,  3 beta functions with: 
                l(1) =   1
                l(2) =   2
                l(3) =   3

     PseudoPot. # 2 for C  read from file:
     /home/nano3/Desktop/RAYID/qe-6.3/bin/pseudo/C.pbe-mt_fhi.UPF
     MD5 check sum: 058ca341f9d6d5327d9962fd88a91b65
     Pseudo is Norm-conserving, Zval =  4.0
     Generated using FHI98PP, converted with fhi2upf.x v.5.0.2
     Using radial grid of  461 points,  3 beta functions with: 
                l(1) =   0
                l(2) =   1
                l(3) =   3

     PseudoPot. # 3 for Si read from file:
     /home/nano3/Desktop/RAYID/qe-6.3/bin/pseudo/Si.pbe-mt_fhi.UPF
     MD5 check sum: 259057c2adf9952f9ced37ae3d9e311d
     Pseudo is Norm-conserving, Zval =  4.0
     Generated using FHI98PP, converted with fhi2upf.x v.5.0.2
     Using radial grid of  495 points,  3 beta functions with: 
                l(1) =   0
                l(2) =   1
                l(3) =   3

     atomic species   valence    mass     pseudopotential
        Ge             4.00    72.59000     Ge( 1.00)
        C              4.00    12.01070     C ( 1.00)
        Si             4.00    28.08550     Si( 1.00)

      6 Sym. Ops. (no inversion) found


                                    s                        frac. trans.

      isym =  1     identity                                     

 cryst.   s( 1) = (     1          0          0      )
                  (     0          1          0      )
                  (     0          0          1      )

 cart.    s( 1) = (  1.0000000  0.0000000  0.0000000 )
                  (  0.0000000  1.0000000  0.0000000 )
                  (  0.0000000  0.0000000  1.0000000 )


      isym =  2     120 deg rotation - cryst. axis [0,0,1]       

 cryst.   s( 2) = (     0          1          0      )
                  (    -1         -1          0      )
                  (     0          0          1      )

 cart.    s( 2) = ( -0.5000000 -0.8660254  0.0000000 )
                  (  0.8660254 -0.5000000  0.0000000 )
                  (  0.0000000  0.0000000  1.0000000 )


      isym =  3     120 deg rotation - cryst. axis [0,0,-1]      

 cryst.   s( 3) = (    -1         -1          0      )
                  (     1          0          0      )
                  (     0          0          1      )

 cart.    s( 3) = ( -0.5000000  0.8660254  0.0000000 )
                  ( -0.8660254 -0.5000000  0.0000000 )
                  (  0.0000000  0.0000000  1.0000000 )


      isym =  4     inv. 180 deg rotation - cart. axis [1,0,0]   

 cryst.   s( 4) = (    -1          0          0      )
                  (     1          1          0      )
                  (     0          0          1      )

 cart.    s( 4) = ( -1.0000000  0.0000000  0.0000000 )
                  (  0.0000000  1.0000000  0.0000000 )
                  (  0.0000000  0.0000000  1.0000000 )


      isym =  5     inv. 180 deg rotation - cryst. axis [0,1,0]  

 cryst.   s( 5) = (     1          1          0      )
                  (     0         -1          0      )
                  (     0          0          1      )

 cart.    s( 5) = (  0.5000000  0.8660254  0.0000000 )
                  (  0.8660254 -0.5000000  0.0000000 )
                  (  0.0000000  0.0000000  1.0000000 )


      isym =  6     inv. 180 deg rotation - cryst. axis [1,1,0]  

 cryst.   s( 6) = (     0         -1          0      )
                  (    -1          0          0      )
                  (     0          0          1      )

 cart.    s( 6) = (  0.5000000 -0.8660254  0.0000000 )
                  ( -0.8660254 -0.5000000  0.0000000 )
                  (  0.0000000  0.0000000  1.0000000 )


     point group C_3v (3m)  
     there are  3 classes
     the character table:

       E     2C3   3s_v 
A_1    1.00  1.00  1.00
A_2    1.00  1.00 -1.00
E      2.00 -1.00  0.00

     the symmetry operations in each class and the name of the first element:

     E        1
          identity                                               
     2C3      2    3
          120 deg rotation - cryst. axis [0,0,1]                 
     3s_v     4    5    6
          inv. 180 deg rotation - cart. axis [1,0,0]             

   Cartesian axes

     site n.     atom                  positions (alat units)
         1           Ge  tau(   1) = (   0.0000000   0.0000000   0.3676471  )
         2           Ge  tau(   2) = (   0.0000000   0.1924510   0.4225490  )
         3           Ge  tau(   3) = (  -0.1666667   0.2886751   0.3676471  )
         4           Ge  tau(   4) = (  -0.1666667   0.4811261   0.4225490  )
         5           Ge  tau(   5) = (  -0.3333333   0.5773503   0.3676471  )
         6           Ge  tau(   6) = (  -0.3333333   0.7698012   0.4225490  )
         7           Ge  tau(   7) = (   0.3333333   0.0000000   0.3676471  )
         8           Ge  tau(   8) = (   0.3333333   0.1924510   0.4225490  )
         9           Ge  tau(   9) = (   0.1666667   0.2886751   0.3676471  )
        10           Ge  tau(  10) = (   0.1666667   0.4811261   0.4225490  )
        11           Ge  tau(  11) = (   0.0000000   0.5773503   0.3676471  )
        12           Ge  tau(  12) = (   0.0000000   0.7698012   0.4225490  )
        13           Ge  tau(  13) = (   0.6666667   0.0000000   0.3676471  )
        14           Ge  tau(  14) = (   0.6666667   0.1924510   0.4225490  )
        15           Ge  tau(  15) = (   0.5000000   0.2886751   0.3676471  )
        16           Ge  tau(  16) = (   0.5000000   0.4811261   0.4225490  )
        17           Ge  tau(  17) = (   0.3333333   0.5773503   0.3676471  )
        18           Ge  tau(  18) = (   0.3333333   0.7698012   0.4225490  )
        19           Si  tau(  19) = (   0.0000000   0.0000000   0.0000000  )
        20           C   tau(  20) = (   0.0000000   0.1443382   0.0000000  )
        21           Si  tau(  21) = (  -0.1250000   0.2165064   0.0000000  )
        22           C   tau(  22) = (  -0.1250000   0.3608446   0.0000000  )
        23           Si  tau(  23) = (  -0.2500000   0.4330127   0.0000000  )
        24           C   tau(  24) = (  -0.2500000   0.5773509   0.0000000  )
        25           Si  tau(  25) = (  -0.3750000   0.6495191   0.0000000  )
        26           C   tau(  26) = (  -0.3750000   0.7938573   0.0000000  )
        27           Si  tau(  27) = (   0.2500000   0.0000000   0.0000000  )
        28           C   tau(  28) = (   0.2500000   0.1443382   0.0000000  )
        29           Si  tau(  29) = (   0.1250000   0.2165064   0.0000000  )
        30           C   tau(  30) = (   0.1250000   0.3608446   0.0000000  )
        31           Si  tau(  31) = (   0.0000000   0.4330127   0.0000000  )
        32           C   tau(  32) = (   0.0000000   0.5773509   0.0000000  )
        33           Si  tau(  33) = (  -0.1250000   0.6495191   0.0000000  )
        34           C   tau(  34) = (  -0.1250000   0.7938573   0.0000000  )
        35           Si  tau(  35) = (   0.5000000   0.0000000   0.0000000  )
        36           C   tau(  36) = (   0.5000000   0.1443382   0.0000000  )
        37           Si  tau(  37) = (   0.3750000   0.2165064   0.0000000  )
        38           C   tau(  38) = (   0.3750000   0.3608446   0.0000000  )
        39           Si  tau(  39) = (   0.2500000   0.4330127   0.0000000  )
        40           C   tau(  40) = (   0.2500000   0.5773509   0.0000000  )
        41           Si  tau(  41) = (   0.1250000   0.6495191   0.0000000  )
        42           C   tau(  42) = (   0.1250000   0.7938573   0.0000000  )
        43           Si  tau(  43) = (   0.7500000   0.0000000   0.0000000  )
        44           C   tau(  44) = (   0.7500000   0.1443382   0.0000000  )
        45           Si  tau(  45) = (   0.6250000   0.2165064   0.0000000  )
        46           C   tau(  46) = (   0.6250000   0.3608446   0.0000000  )
        47           Si  tau(  47) = (   0.5000000   0.4330127   0.0000000  )
        48           C   tau(  48) = (   0.5000000   0.5773509   0.0000000  )
        49           Si  tau(  49) = (   0.3750000   0.6495191   0.0000000  )
        50           C   tau(  50) = (   0.3750000   0.7938573   0.0000000  )

   Crystallographic axes

     site n.     atom                  positions (cryst. coord.)
         1           Ge  tau(   1) = (  0.0000000  0.0000000  0.2250000  )
         2           Ge  tau(   2) = (  0.1111116  0.2222233  0.2586000  )
         3           Ge  tau(   3) = ( -0.0000000  0.3333333  0.2250000  )
         4           Ge  tau(   4) = (  0.1111116  0.5555566  0.2586000  )
         5           Ge  tau(   5) = ( -0.0000000  0.6666667  0.2250000  )
         6           Ge  tau(   6) = (  0.1111116  0.8888899  0.2586000  )
         7           Ge  tau(   7) = (  0.3333333  0.0000000  0.2250000  )
         8           Ge  tau(   8) = (  0.4444450  0.2222233  0.2586000  )
         9           Ge  tau(   9) = (  0.3333333  0.3333333  0.2250000  )
        10           Ge  tau(  10) = (  0.4444450  0.5555566  0.2586000  )
        11           Ge  tau(  11) = (  0.3333333  0.6666667  0.2250000  )
        12           Ge  tau(  12) = (  0.4444450  0.8888899  0.2586000  )
        13           Ge  tau(  13) = (  0.6666667  0.0000000  0.2250000  )
        14           Ge  tau(  14) = (  0.7777783  0.2222233  0.2586000  )
        15           Ge  tau(  15) = (  0.6666667  0.3333333  0.2250000  )
        16           Ge  tau(  16) = (  0.7777783  0.5555566  0.2586000  )
        17           Ge  tau(  17) = (  0.6666667  0.6666667  0.2250000  )
        18           Ge  tau(  18) = (  0.7777783  0.8888899  0.2586000  )
        19           Si  tau(  19) = (  0.0000000  0.0000000  0.0000000  )
        20           C   tau(  20) = (  0.0833337  0.1666674  0.0000000  )
        21           Si  tau(  21) = (  0.0000000  0.2500000  0.0000000  )
        22           C   tau(  22) = (  0.0833337  0.4166674  0.0000000  )
        23           Si  tau(  23) = (  0.0000000  0.5000000  0.0000000  )
        24           C   tau(  24) = (  0.0833337  0.6666674  0.0000000  )
        25           Si  tau(  25) = (  0.0000000  0.7500000  0.0000000  )
        26           C   tau(  26) = (  0.0833337  0.9166674  0.0000000  )
        27           Si  tau(  27) = (  0.2500000  0.0000000  0.0000000  )
        28           C   tau(  28) = (  0.3333337  0.1666674  0.0000000  )
        29           Si  tau(  29) = (  0.2500000  0.2500000  0.0000000  )
        30           C   tau(  30) = (  0.3333337  0.4166674  0.0000000  )
        31           Si  tau(  31) = (  0.2500000  0.5000000  0.0000000  )
        32           C   tau(  32) = (  0.3333337  0.6666674  0.0000000  )
        33           Si  tau(  33) = (  0.2500000  0.7500000  0.0000000  )
        34           C   tau(  34) = (  0.3333337  0.9166674  0.0000000  )
        35           Si  tau(  35) = (  0.5000000  0.0000000  0.0000000  )
        36           C   tau(  36) = (  0.5833337  0.1666674  0.0000000  )
        37           Si  tau(  37) = (  0.5000000  0.2500000  0.0000000  )
        38           C   tau(  38) = (  0.5833337  0.4166674  0.0000000  )
        39           Si  tau(  39) = (  0.5000000  0.5000000  0.0000000  )
        40           C   tau(  40) = (  0.5833337  0.6666674  0.0000000  )
        41           Si  tau(  41) = (  0.5000000  0.7500000  0.0000000  )
        42           C   tau(  42) = (  0.5833337  0.9166674  0.0000000  )
        43           Si  tau(  43) = (  0.7500000  0.0000000  0.0000000  )
        44           C   tau(  44) = (  0.8333337  0.1666674  0.0000000  )
        45           Si  tau(  45) = (  0.7500000  0.2500000  0.0000000  )
        46           C   tau(  46) = (  0.8333337  0.4166674  0.0000000  )
        47           Si  tau(  47) = (  0.7500000  0.5000000  0.0000000  )
        48           C   tau(  48) = (  0.8333337  0.6666674  0.0000000  )
        49           Si  tau(  49) = (  0.7500000  0.7500000  0.0000000  )
        50           C   tau(  50) = (  0.8333337  0.9166674  0.0000000  )

     number of k points=     3  Methfessel-Paxton smearing, width (Ry)=  0.0060
                       cart. coord. in units 2pi/alat
        k(    1) = (   0.0000000   0.0000000   0.0000000), wk =   0.2222222
        k(    2) = (   0.0000000   0.3849002   0.0000000), wk =   1.3333333
        k(    3) = (   0.3333333   0.5773503   0.0000000), wk =   0.4444444

                       cryst. coord.
        k(    1) = (   0.0000000   0.0000000   0.0000000), wk =   0.2222222
        k(    2) = (   0.0000000   0.3333333   0.0000000), wk =   1.3333333
        k(    3) = (   0.3333333   0.3333333   0.0000000), wk =   0.4444444

     Dense  grid:   388955 G-vectors     FFT dimensions: (  81,  81, 135)

     Dynamical RAM for                 wfc:      88.97 MB

     Dynamical RAM for     wfc (w. buffer):     355.88 MB

     Dynamical RAM for           str. fact:      17.80 MB

     Dynamical RAM for           local pot:       0.00 MB

     Dynamical RAM for          nlocal pot:     461.17 MB

     Dynamical RAM for                qrad:       3.88 MB

     Dynamical RAM for          rho,v,vnew:      38.08 MB

     Dynamical RAM for               rhoin:      12.69 MB

     Dynamical RAM for            rho*nmix:      94.96 MB

     Dynamical RAM for           G-vectors:      25.22 MB

     Dynamical RAM for          h,s,v(r/c):      10.55 MB

     Dynamical RAM for          <psi|beta>:       1.14 MB

     Dynamical RAM for                 psi:     355.88 MB

     Dynamical RAM for                hpsi:     355.88 MB

     Dynamical RAM for      wfcinit/wfcrot:    1200.93 MB

     Estimated static dynamical RAM per process >       1.04 GB

     Estimated max dynamical RAM per process >       2.21 GB

     Initial potential from superposition of free atoms
     Check: negative starting charge=   -0.005495

     starting charge  199.97158, renormalised to  200.00000

     negative rho (up, down):  5.496E-03 0.000E+00
     Starting wfcs are  800 randomized atomic wfcs

     total cpu time spent up to now is      362.4 secs

     Self-consistent Calculation

     iteration #  1     ecut=    30.00 Ry     beta= 0.70
     Davidson diagonalization with overlap
     ethr =  1.00E-02,  avg # of iterations =  2.0

     negative rho (up, down):  1.150E-03 0.000E+00

     total cpu time spent up to now is      490.5 secs

     total energy              =    -444.80241865 Ry
     Harris-Foulkes estimate   =    -451.55443175 Ry
     estimated scf accuracy    <      10.19498389 Ry

     iteration #  2     ecut=    30.00 Ry     beta= 0.70
     Davidson diagonalization with overlap
     ethr =  5.10E-03,  avg # of iterations =  3.3

     negative rho (up, down):  7.109E-04 0.000E+00

     total cpu time spent up to now is      620.9 secs

     total energy              =    -443.99389041 Ry
     Harris-Foulkes estimate   =    -450.64370437 Ry
     estimated scf accuracy    <      13.97307781 Ry

     iteration #  3     ecut=    30.00 Ry     beta= 0.70
     Davidson diagonalization with overlap
     ethr =  5.10E-03,  avg # of iterations =  5.3

     negative rho (up, down):  4.508E-04 0.000E+00

     total cpu time spent up to now is      766.0 secs

     total energy              =    -438.23381557 Ry
     Harris-Foulkes estimate   =    -454.04479165 Ry
     estimated scf accuracy    <     160.21522034 Ry

     iteration #  4     ecut=    30.00 Ry     beta= 0.70
     Davidson diagonalization with overlap
     ethr =  5.10E-03,  avg # of iterations =  6.3

     negative rho (up, down):  1.239E-04 0.000E+00

     total cpu time spent up to now is      878.7 secs

     total energy              =    -448.31866989 Ry
     Harris-Foulkes estimate   =    -448.38263543 Ry
     estimated scf accuracy    <       0.16618210 Ry

     iteration #  5     ecut=    30.00 Ry     beta= 0.70
     Davidson diagonalization with overlap
     ethr =  8.31E-05,  avg # of iterations = 12.0

     negative rho (up, down):  1.077E-06 0.000E+00

     total cpu time spent up to now is     1108.3 secs

     total energy              =    -448.51851565 Ry
     Harris-Foulkes estimate   =    -448.61638971 Ry
     estimated scf accuracy    <       0.33436014 Ry

     iteration #  6     ecut=    30.00 Ry     beta= 0.70
     Davidson diagonalization with overlap
     ethr =  8.31E-05,  avg # of iterations =  2.0

     total cpu time spent up to now is     1217.5 secs

     total energy              =    -448.54999161 Ry
     Harris-Foulkes estimate   =    -448.55635306 Ry
     estimated scf accuracy    <       0.01785203 Ry

     iteration #  7     ecut=    30.00 Ry     beta= 0.70
     Davidson diagonalization with overlap
     ethr =  8.93E-06,  avg # of iterations = 10.7

     total cpu time spent up to now is     1372.5 secs

     total energy              =    -448.55235976 Ry
     Harris-Foulkes estimate   =    -448.55328188 Ry
     estimated scf accuracy    <       0.00195132 Ry

     iteration #  8     ecut=    30.00 Ry     beta= 0.70
     Davidson diagonalization with overlap
     ethr =  9.76E-07,  avg # of iterations =  4.7

     total cpu time spent up to now is     1508.7 secs

     total energy              =    -448.55270408 Ry
     Harris-Foulkes estimate   =    -448.55306620 Ry
     estimated scf accuracy    <       0.00122049 Ry

     iteration #  9     ecut=    30.00 Ry     beta= 0.70
     Davidson diagonalization with overlap
     ethr =  6.10E-07,  avg # of iterations =  2.0

     total cpu time spent up to now is     1609.0 secs

     total energy              =    -448.55280080 Ry
     Harris-Foulkes estimate   =    -448.55294569 Ry
     estimated scf accuracy    <       0.00066602 Ry

     iteration # 10     ecut=    30.00 Ry     beta= 0.70
     Davidson diagonalization with overlap
     ethr =  3.33E-07,  avg # of iterations =  2.0

     total cpu time spent up to now is     1706.4 secs

     total energy              =    -448.55284374 Ry
     Harris-Foulkes estimate   =    -448.55288073 Ry
     estimated scf accuracy    <       0.00033405 Ry

     iteration # 11     ecut=    30.00 Ry     beta= 0.70
     Davidson diagonalization with overlap
     ethr =  1.67E-07,  avg # of iterations =  1.3

     total cpu time spent up to now is     1800.2 secs

     total energy              =    -448.55284153 Ry
     Harris-Foulkes estimate   =    -448.55285950 Ry
     estimated scf accuracy    <       0.00026152 Ry

     iteration # 12     ecut=    30.00 Ry     beta= 0.70
     Davidson diagonalization with overlap
     ethr =  1.31E-07,  avg # of iterations =  1.0

     total cpu time spent up to now is     1889.8 secs

     total energy              =    -448.55267098 Ry
     Harris-Foulkes estimate   =    -448.55284684 Ry
     estimated scf accuracy    <       0.00022555 Ry

     iteration # 13     ecut=    30.00 Ry     beta= 0.70
     Davidson diagonalization with overlap
     ethr =  1.13E-07,  avg # of iterations =  7.3

     total cpu time spent up to now is     2009.3 secs

     End of self-consistent calculation

          k = 0.0000 0.0000 0.0000 ( 48515 PWs)   bands (ev):

   -15.5614 -14.5377 -14.5369 -14.5368 -14.5327 -14.5327 -14.5318 -12.7756
   -12.7747 -12.7724 -12.7723 -12.7689 -12.7689 -12.5431 -12.5431 -12.5413
   -12.1592 -11.0283 -11.0277 -11.0276 -11.0276 -11.0272 -11.0272  -9.5997
    -9.5990  -9.5989  -9.2132  -9.2126  -9.2109  -9.2109  -8.3599  -8.3598
    -8.3586  -8.3586  -8.3579  -8.3573  -7.0347  -7.0347  -7.0345  -7.0340
    -7.0337  -7.0336  -6.3496  -6.3496  -6.3471  -6.3464  -6.3459  -6.3459
    -6.1541  -6.1522  -6.1521  -6.1504  -6.1503  -6.1486  -5.5347  -4.6644
    -4.6644  -4.4781  -4.4696  -4.4687  -4.4686  -4.4347  -4.4339  -4.4339
    -4.4301  -4.4301  -4.4290  -3.7903  -3.7890  -3.7889  -3.7880  -3.7880
    -3.7866  -2.8878  -2.8877  -2.7380  -2.7379  -2.7379  -2.7359  -2.7358
    -2.7358  -2.7353  -2.7353  -2.7351  -2.7349  -2.7349  -2.7348  -2.5615
    -2.5611  -2.5388  -2.5388  -2.5352  -2.5352  -2.3303  -2.3302  -2.3287
    -1.5381  -1.5380  -0.9983  -0.9983  -0.9912  -0.9909  -0.7429   0.2444
     0.2444   0.2450   0.2669   0.2675   0.2675   0.8649   0.8654   0.8654
     1.0167   1.0168   1.0191   1.0720   1.1423   1.1446   1.1446   1.8854

     occupation numbers 
     1.0000   1.0000   1.0000   1.0000   1.0000   1.0000   1.0000   1.0000
     1.0000   1.0000   1.0000   1.0000   1.0000   1.0000   1.0000   1.0000
     1.0000   1.0000   1.0000   1.0000   1.0000   1.0000   1.0000   1.0000
     1.0000   1.0000   1.0000   1.0000   1.0000   1.0000   1.0000   1.0000
     1.0000   1.0000   1.0000   1.0000   1.0000   1.0000   1.0000   1.0000
     1.0000   1.0000   1.0000   1.0000   1.0000   1.0000   1.0000   1.0000
     1.0000   1.0000   1.0000   1.0000   1.0000   1.0000   1.0000   1.0000
     1.0000   1.0000   1.0000   1.0000   1.0000   1.0000   1.0000   1.0000
     1.0000   1.0000   1.0000   1.0000   1.0000   1.0000   1.0000   1.0000
     1.0000   1.0000   1.0000   1.0000   1.0000   1.0000   1.0000   1.0000
     1.0000   1.0000   1.0000   1.0000   1.0000   1.0000   1.0000   1.0000
     1.0000   1.0000   1.0000   1.0000   1.0000   1.0000   1.0000   1.0000
     1.0000   1.0000   0.5379   0.5379   0.4638   0.4605  -0.0001  -0.0000
    -0.0000  -0.0000  -0.0000  -0.0000  -0.0000  -0.0000  -0.0000  -0.0000
    -0.0000  -0.0000  -0.0000  -0.0000  -0.0000  -0.0000  -0.0000  -0.0000

          k = 0.0000 0.3849 0.0000 ( 48609 PWs)   bands (ev):

   -15.4446 -15.0976 -14.7571 -14.7570 -14.1019 -14.1019 -13.7931 -13.4882
   -13.4882 -12.9881 -12.7215 -12.7205 -12.6072 -12.6061 -12.1796 -12.1796
   -12.0282 -11.6406 -11.2637 -11.2633 -10.5741 -10.5738 -10.3444  -9.9439
    -9.9436  -9.3574  -9.3569  -8.9809  -8.9369  -8.9367  -8.7747  -8.7743
    -8.4656  -8.4654  -8.1643  -7.7405  -7.7403  -7.6737  -7.6647  -7.6647
    -6.9332  -6.9331  -6.8836  -6.8836  -6.4880  -6.4880  -5.8019  -5.8013
    -5.6512  -5.4796  -5.4795  -5.4126  -5.3781  -5.3780  -5.0154  -4.8999
    -4.8994  -4.6658  -4.6658  -4.6469  -4.6402  -4.3877  -4.3540  -4.3540
    -4.3296  -4.3296  -4.1443  -3.9754  -3.9754  -3.8614  -3.8614  -3.6490
    -3.4752  -3.4751  -3.4085  -3.3817  -3.3176  -3.3175  -3.0981  -3.0451
    -3.0450  -3.0301  -2.9758  -2.8069  -2.8068  -2.8021  -2.6815  -2.4988
    -2.4980  -2.4018  -2.4008  -2.2962  -2.2623  -2.2623  -2.2294  -1.8883
    -1.8883  -1.7927  -1.6622  -1.6620  -0.3699  -0.3697  -0.2189   0.1254
     0.1254   0.4480   0.5789   0.7286   0.8752   0.8754   1.1798   1.1997
     1.2009   1.2169   1.2178   1.2897   1.4478   1.4481   1.5897   1.6290

     occupation numbers 
     1.0000   1.0000   1.0000   1.0000   1.0000   1.0000   1.0000   1.0000
     1.0000   1.0000   1.0000   1.0000   1.0000   1.0000   1.0000   1.0000
     1.0000   1.0000   1.0000   1.0000   1.0000   1.0000   1.0000   1.0000
     1.0000   1.0000   1.0000   1.0000   1.0000   1.0000   1.0000   1.0000
     1.0000   1.0000   1.0000   1.0000   1.0000   1.0000   1.0000   1.0000
     1.0000   1.0000   1.0000   1.0000   1.0000   1.0000   1.0000   1.0000
     1.0000   1.0000   1.0000   1.0000   1.0000   1.0000   1.0000   1.0000
     1.0000   1.0000   1.0000   1.0000   1.0000   1.0000   1.0000   1.0000
     1.0000   1.0000   1.0000   1.0000   1.0000   1.0000   1.0000   1.0000
     1.0000   1.0000   1.0000   1.0000   1.0000   1.0000   1.0000   1.0000
     1.0000   1.0000   1.0000   1.0000   1.0000   1.0000   1.0000   1.0000
     1.0000   1.0000   1.0000   1.0000   1.0000   1.0000   1.0000   1.0000
     1.0000   1.0000   1.0000   1.0000  -0.0000  -0.0000  -0.0000  -0.0000
    -0.0000  -0.0000  -0.0000  -0.0000  -0.0000  -0.0000  -0.0000  -0.0000
    -0.0000  -0.0000  -0.0000  -0.0000  -0.0000  -0.0000  -0.0000  -0.0000

          k = 0.3333 0.5774 0.0000 ( 48552 PWs)   bands (ev):

   -15.2155 -15.2128 -15.2098 -14.2075 -14.2075 -14.2061 -13.3134 -13.3125
   -13.3125 -13.3081 -13.3081 -13.3073 -12.3122 -12.3092 -12.3056 -11.9462
   -11.7687 -11.7685 -11.7681 -10.6614 -10.6613 -10.6608 -10.0839 -10.0837
   -10.0835  -9.3158  -9.3134  -9.3126  -8.9014  -8.4356  -8.4355  -8.4351
    -8.3304  -8.3299  -8.3283  -8.3280  -8.3263  -8.3259  -7.5064  -7.5061
    -7.5054  -7.4029  -6.5006  -6.5004  -6.5000  -5.9387  -5.9386  -5.9366
    -5.3314  -5.3303  -5.3302  -5.0946  -5.0925  -5.0903  -4.7150  -4.7149
    -4.7140  -4.7116  -4.7106  -4.7103  -4.6743  -4.6738  -4.6732  -4.2168
    -4.2152  -4.2151  -4.0866  -4.0866  -4.0855  -3.8598  -3.8593  -3.8585
    -3.6313  -3.6304  -3.6301  -3.3510  -3.3499  -3.3471  -3.1455  -3.1455
    -3.1434  -3.1255  -3.1234  -3.1232  -3.0658  -3.0657  -3.0656  -2.3350
    -2.3348  -2.3346  -2.3211  -2.3183  -2.3161  -2.0542  -2.0453  -2.0429
    -1.8736  -1.8735  -1.8731  -1.5971  -0.3641  -0.3592  -0.3545   0.3205
     0.3533   0.3699   1.0244   1.0764   1.0871   1.1266   1.2593   1.2602
     1.2603   1.3339   1.3347   1.3351   1.3374   1.3390   1.3398   2.1639

     occupation numbers 
     1.0000   1.0000   1.0000   1.0000   1.0000   1.0000   1.0000   1.0000
     1.0000   1.0000   1.0000   1.0000   1.0000   1.0000   1.0000   1.0000
     1.0000   1.0000   1.0000   1.0000   1.0000   1.0000   1.0000   1.0000
     1.0000   1.0000   1.0000   1.0000   1.0000   1.0000   1.0000   1.0000
     1.0000   1.0000   1.0000   1.0000   1.0000   1.0000   1.0000   1.0000
     1.0000   1.0000   1.0000   1.0000   1.0000   1.0000   1.0000   1.0000
     1.0000   1.0000   1.0000   1.0000   1.0000   1.0000   1.0000   1.0000
     1.0000   1.0000   1.0000   1.0000   1.0000   1.0000   1.0000   1.0000
     1.0000   1.0000   1.0000   1.0000   1.0000   1.0000   1.0000   1.0000
     1.0000   1.0000   1.0000   1.0000   1.0000   1.0000   1.0000   1.0000
     1.0000   1.0000   1.0000   1.0000   1.0000   1.0000   1.0000   1.0000
     1.0000   1.0000   1.0000   1.0000   1.0000   1.0000   1.0000   1.0000
     1.0000   1.0000   1.0000   1.0000  -0.0000  -0.0000  -0.0000  -0.0000
    -0.0000  -0.0000  -0.0000  -0.0000  -0.0000  -0.0000  -0.0000  -0.0000
    -0.0000  -0.0000  -0.0000  -0.0000  -0.0000  -0.0000  -0.0000  -0.0000

     the Fermi energy is    -0.9947 ev

!    total energy              =    -448.55272217 Ry
     Harris-Foulkes estimate   =    -448.55273195 Ry
     estimated scf accuracy    <       0.00001852 Ry

     The total energy is the sum of the following terms:

     one-electron contribution =   -2607.83465291 Ry
     hartree contribution      =    1342.13020668 Ry
     xc contribution           =    -135.67001863 Ry
     ewald contribution        =     953.22701812 Ry
     Dispersion Correction     =      -0.40452794 Ry
     smearing contrib. (-TS)   =      -0.00074748 Ry

     convergence has been achieved in  13 iterations

     Writing output data file Ge+SiC_I__4.5.save/

     init_run     :    360.78s CPU    362.20s WALL (       1 calls)
     electrons    :   1641.12s CPU   1646.97s WALL (       1 calls)

     Called by init_run:
     wfcinit      :    358.83s CPU    360.17s WALL (       1 calls)
     wfcinit:atom :      0.69s CPU      1.20s WALL (       3 calls)
     wfcinit:wfcr :    352.55s CPU    353.11s WALL (       3 calls)
     potinit      :      0.97s CPU      1.02s WALL (       1 calls)
     hinit0       :      0.85s CPU      0.86s WALL (       1 calls)

     Called by electrons:
     c_bands      :   1521.59s CPU   1527.29s WALL (      13 calls)
     sum_band     :    110.17s CPU    110.24s WALL (      13 calls)
     v_of_rho     :      7.76s CPU      7.80s WALL (      14 calls)
     v_h          :      0.47s CPU      0.47s WALL (      14 calls)
     v_xc         :      7.29s CPU      7.32s WALL (      14 calls)
     mix_rho      :      1.59s CPU      1.65s WALL (      13 calls)

     Called by c_bands:
     init_us_2    :     10.22s CPU     10.36s WALL (      81 calls)
     cegterg      :   1487.33s CPU   1493.01s WALL (      39 calls)

     Called by sum_band:

     Called by *egterg:
     h_psi        :   1292.54s CPU   1295.38s WALL (     222 calls)
     g_psi        :      2.69s CPU      2.69s WALL (     180 calls)
     cdiaghg      :     20.56s CPU     20.56s WALL (     219 calls)
     cegterg:over :    168.74s CPU    168.74s WALL (     180 calls)
     cegterg:upda :     99.91s CPU    101.51s WALL (     180 calls)
     cegterg:last :     57.22s CPU     57.23s WALL (      42 calls)

     Called by h_psi:
     h_psi:pot    :   1289.78s CPU   1290.28s WALL (     222 calls)
     h_psi:calbec :    352.98s CPU    352.98s WALL (     222 calls)
     vloc_psi     :    622.29s CPU    622.77s WALL (     222 calls)
     add_vuspsi   :    314.50s CPU    314.52s WALL (     222 calls)

     General routines
     calbec       :    352.98s CPU    352.98s WALL (     222 calls)
     fft          :      3.19s CPU      3.19s WALL (     140 calls)
     ffts         :      0.31s CPU      0.31s WALL (      13 calls)
     fftw         :    611.63s CPU    611.94s WALL (   33682 calls)

     Parallel routines

     PWSCF        : 33m22.25s CPU    33m29.73s WALL


   This run was terminated on:   9:58:52  19Apr2020            

=------------------------------------------------------------------------------=
   JOB DONE.
=------------------------------------------------------------------------------=
