
     Program PWSCF v.6.3 starts on 19Apr2020 at 16:17:42 

     This program is part of the open-source Quantum ESPRESSO suite
     for quantum simulation of materials; please cite
         "P. Giannozzi et al., J. Phys.:Condens. Matter 21 395502 (2009);
         "P. Giannozzi et al., J. Phys.:Condens. Matter 29 465901 (2017);
          URL http://www.quantum-espresso.org", 
     in publications or presentations arising from this work. More details at
     http://www.quantum-espresso.org/quote

     Parallel version (MPI), running on     1 processors

     MPI processes distributed on     1 nodes
     Reading input from /home/nano3/Desktop/RAYID/Ge+SiC/Ge+SiC_I/Ge+SiC_I__4.5.band_nscf.in

     Current dimensions of program PWSCF are:
     Max number of different atomic species (ntypx) = 10
     Max number of k-points (npk) =  40000
     Max angular momentum in pseudopotentials (lmaxx) =  3

     Atomic positions and unit cell read from directory:
     /home/nano3/Desktop/RAYID/Ge+SiC/Ge+SiC_I/work/Ge+SiC_I__4.5.save/


     IMPORTANT: XC functional enforced from input :
     Exchange-correlation      = PBE ( 1  4  3  4 0 0)
     Any further DFT definition will be discarded
     Please, verify this is what you really want

               file Ge.pbe-mt_fhi.UPF: wavefunction(s)  4d 4f renormalized
               file C.pbe-mt_fhi.UPF: wavefunction(s)  4f renormalized
               file Si.pbe-mt_fhi.UPF: wavefunction(s)  4f renormalized

     -------------------------------------------------
     Parameters for Dispersion (Grimme-D2) Correction:
     -------------------------------------------------
       atom      VdW radius       C_6     

        Ge         3.264        593.221
        C          2.744         60.710
        Si         3.243        320.200

     Subspace diagonalization in iterative solution of the eigenvalue problem:
     a serial algorithm will be used


     G-vector sticks info
     --------------------
     sticks:   dense  smooth     PW     G-vecs:    dense   smooth      PW
     Sum        4429    4429   1177               388955   388955   53541



     bravais-lattice index     =            4
     lattice parameter (alat)  =      23.1302  a.u.
     unit-cell volume          =   17511.3678 (a.u.)^3
     number of atoms/cell      =           50
     number of atomic types    =            3
     number of electrons       =       200.00
     number of Kohn-Sham states=          120
     kinetic-energy cutoff     =      30.0000  Ry
     charge density cutoff     =     120.0000  Ry
     Exchange-correlation      = PBE ( 1  4  3  4 0 0)

     celldm(1)=  23.130248  celldm(2)=   0.000000  celldm(3)=   1.633987
     celldm(4)=   0.000000  celldm(5)=   0.000000  celldm(6)=   0.000000

     crystal axes: (cart. coord. in units of alat)
               a(1) = (   1.000000   0.000000   0.000000 )  
               a(2) = (  -0.500000   0.866025   0.000000 )  
               a(3) = (   0.000000   0.000000   1.633987 )  

     reciprocal axes: (cart. coord. in units 2 pi/alat)
               b(1) = (  1.000000  0.577350 -0.000000 )  
               b(2) = (  0.000000  1.154701  0.000000 )  
               b(3) = (  0.000000 -0.000000  0.612000 )  


     PseudoPot. # 1 for Ge read from file:
     /home/nano3/Desktop/RAYID/qe-6.3/bin/pseudo/Ge.pbe-mt_fhi.UPF
     MD5 check sum: b08ff19c3d362044f6e29226b459d86a
     Pseudo is Norm-conserving, Zval =  4.0
     Generated using FHI98PP, converted with fhi2upf.x v.5.0.2
     Using radial grid of  529 points,  3 beta functions with: 
                l(1) =   1
                l(2) =   2
                l(3) =   3

     PseudoPot. # 2 for C  read from file:
     /home/nano3/Desktop/RAYID/qe-6.3/bin/pseudo/C.pbe-mt_fhi.UPF
     MD5 check sum: 058ca341f9d6d5327d9962fd88a91b65
     Pseudo is Norm-conserving, Zval =  4.0
     Generated using FHI98PP, converted with fhi2upf.x v.5.0.2
     Using radial grid of  461 points,  3 beta functions with: 
                l(1) =   0
                l(2) =   1
                l(3) =   3

     PseudoPot. # 3 for Si read from file:
     /home/nano3/Desktop/RAYID/qe-6.3/bin/pseudo/Si.pbe-mt_fhi.UPF
     MD5 check sum: 259057c2adf9952f9ced37ae3d9e311d
     Pseudo is Norm-conserving, Zval =  4.0
     Generated using FHI98PP, converted with fhi2upf.x v.5.0.2
     Using radial grid of  495 points,  3 beta functions with: 
                l(1) =   0
                l(2) =   1
                l(3) =   3

     atomic species   valence    mass     pseudopotential
        Ge             4.00    72.59000     Ge( 1.00)
        C              4.00    12.01070     C ( 1.00)
        Si             4.00    28.08550     Si( 1.00)

      6 Sym. Ops. (no inversion) found


                                    s                        frac. trans.

      isym =  1     identity                                     

 cryst.   s( 1) = (     1          0          0      )
                  (     0          1          0      )
                  (     0          0          1      )

 cart.    s( 1) = (  1.0000000 -0.0000000  0.0000000 )
                  (  0.0000000  1.0000000  0.0000000 )
                  (  0.0000000  0.0000000  1.0000000 )


      isym =  2     120 deg rotation - cryst. axis [0,0,1]       

 cryst.   s( 2) = (     0          1          0      )
                  (    -1         -1          0      )
                  (     0          0          1      )

 cart.    s( 2) = ( -0.5000000 -0.8660254  0.0000000 )
                  (  0.8660254 -0.5000000  0.0000000 )
                  (  0.0000000  0.0000000  1.0000000 )


      isym =  3     120 deg rotation - cryst. axis [0,0,-1]      

 cryst.   s( 3) = (    -1         -1          0      )
                  (     1          0          0      )
                  (     0          0          1      )

 cart.    s( 3) = ( -0.5000000  0.8660254  0.0000000 )
                  ( -0.8660254 -0.5000000  0.0000000 )
                  (  0.0000000  0.0000000  1.0000000 )


      isym =  4     inv. 180 deg rotation - cart. axis [1,0,0]   

 cryst.   s( 4) = (    -1          0          0      )
                  (     1          1          0      )
                  (     0          0          1      )

 cart.    s( 4) = ( -1.0000000 -0.0000000  0.0000000 )
                  (  0.0000000  1.0000000  0.0000000 )
                  (  0.0000000  0.0000000  1.0000000 )


      isym =  5     inv. 180 deg rotation - cryst. axis [0,1,0]  

 cryst.   s( 5) = (     1          1          0      )
                  (     0         -1          0      )
                  (     0          0          1      )

 cart.    s( 5) = (  0.5000000  0.8660254  0.0000000 )
                  (  0.8660254 -0.5000000  0.0000000 )
                  (  0.0000000  0.0000000  1.0000000 )


      isym =  6     inv. 180 deg rotation - cryst. axis [1,1,0]  

 cryst.   s( 6) = (     0         -1          0      )
                  (    -1          0          0      )
                  (     0          0          1      )

 cart.    s( 6) = (  0.5000000 -0.8660254  0.0000000 )
                  ( -0.8660254 -0.5000000  0.0000000 )
                  (  0.0000000  0.0000000  1.0000000 )


     point group C_3v (3m)  
     there are  3 classes
     the character table:

       E     2C3   3s_v 
A_1    1.00  1.00  1.00
A_2    1.00  1.00 -1.00
E      2.00 -1.00  0.00

     the symmetry operations in each class and the name of the first element:

     E        1
          identity                                               
     2C3      2    3
          120 deg rotation - cryst. axis [0,0,1]                 
     3s_v     4    5    6
          inv. 180 deg rotation - cart. axis [1,0,0]             

   Cartesian axes

     site n.     atom                  positions (alat units)
         1           Ge  tau(   1) = (   0.0000000   0.0000000   0.3676471  )
         2           Ge  tau(   2) = (   0.0000000   0.1924510   0.4225490  )
         3           Ge  tau(   3) = (  -0.1666667   0.2886751   0.3676471  )
         4           Ge  tau(   4) = (  -0.1666667   0.4811261   0.4225490  )
         5           Ge  tau(   5) = (  -0.3333333   0.5773503   0.3676471  )
         6           Ge  tau(   6) = (  -0.3333333   0.7698012   0.4225490  )
         7           Ge  tau(   7) = (   0.3333333   0.0000000   0.3676471  )
         8           Ge  tau(   8) = (   0.3333333   0.1924510   0.4225490  )
         9           Ge  tau(   9) = (   0.1666667   0.2886751   0.3676471  )
        10           Ge  tau(  10) = (   0.1666667   0.4811261   0.4225490  )
        11           Ge  tau(  11) = (   0.0000000   0.5773503   0.3676471  )
        12           Ge  tau(  12) = (   0.0000000   0.7698012   0.4225490  )
        13           Ge  tau(  13) = (   0.6666667   0.0000000   0.3676471  )
        14           Ge  tau(  14) = (   0.6666667   0.1924510   0.4225490  )
        15           Ge  tau(  15) = (   0.5000000   0.2886751   0.3676471  )
        16           Ge  tau(  16) = (   0.5000000   0.4811261   0.4225490  )
        17           Ge  tau(  17) = (   0.3333333   0.5773503   0.3676471  )
        18           Ge  tau(  18) = (   0.3333333   0.7698012   0.4225490  )
        19           Si  tau(  19) = (   0.0000000   0.0000000   0.0000000  )
        20           C   tau(  20) = (   0.0000000   0.1443382   0.0000000  )
        21           Si  tau(  21) = (  -0.1250000   0.2165064   0.0000000  )
        22           C   tau(  22) = (  -0.1250000   0.3608446   0.0000000  )
        23           Si  tau(  23) = (  -0.2500000   0.4330127   0.0000000  )
        24           C   tau(  24) = (  -0.2500000   0.5773509   0.0000000  )
        25           Si  tau(  25) = (  -0.3750000   0.6495191   0.0000000  )
        26           C   tau(  26) = (  -0.3750000   0.7938573   0.0000000  )
        27           Si  tau(  27) = (   0.2500000   0.0000000   0.0000000  )
        28           C   tau(  28) = (   0.2500000   0.1443382   0.0000000  )
        29           Si  tau(  29) = (   0.1250000   0.2165064   0.0000000  )
        30           C   tau(  30) = (   0.1250000   0.3608446   0.0000000  )
        31           Si  tau(  31) = (   0.0000000   0.4330127   0.0000000  )
        32           C   tau(  32) = (   0.0000000   0.5773509   0.0000000  )
        33           Si  tau(  33) = (  -0.1250000   0.6495191   0.0000000  )
        34           C   tau(  34) = (  -0.1250000   0.7938573   0.0000000  )
        35           Si  tau(  35) = (   0.5000000   0.0000000   0.0000000  )
        36           C   tau(  36) = (   0.5000000   0.1443382   0.0000000  )
        37           Si  tau(  37) = (   0.3750000   0.2165064   0.0000000  )
        38           C   tau(  38) = (   0.3750000   0.3608446   0.0000000  )
        39           Si  tau(  39) = (   0.2500000   0.4330127   0.0000000  )
        40           C   tau(  40) = (   0.2500000   0.5773509   0.0000000  )
        41           Si  tau(  41) = (   0.1250000   0.6495191   0.0000000  )
        42           C   tau(  42) = (   0.1250000   0.7938573   0.0000000  )
        43           Si  tau(  43) = (   0.7500000   0.0000000   0.0000000  )
        44           C   tau(  44) = (   0.7500000   0.1443382   0.0000000  )
        45           Si  tau(  45) = (   0.6250000   0.2165064   0.0000000  )
        46           C   tau(  46) = (   0.6250000   0.3608446   0.0000000  )
        47           Si  tau(  47) = (   0.5000000   0.4330127   0.0000000  )
        48           C   tau(  48) = (   0.5000000   0.5773509   0.0000000  )
        49           Si  tau(  49) = (   0.3750000   0.6495191   0.0000000  )
        50           C   tau(  50) = (   0.3750000   0.7938573   0.0000000  )

   Crystallographic axes

     site n.     atom                  positions (cryst. coord.)
         1           Ge  tau(   1) = (  0.0000000  0.0000000  0.2250000  )
         2           Ge  tau(   2) = (  0.1111116  0.2222233  0.2586000  )
         3           Ge  tau(   3) = ( -0.0000000  0.3333333  0.2250000  )
         4           Ge  tau(   4) = (  0.1111116  0.5555566  0.2586000  )
         5           Ge  tau(   5) = ( -0.0000000  0.6666667  0.2250000  )
         6           Ge  tau(   6) = (  0.1111116  0.8888899  0.2586000  )
         7           Ge  tau(   7) = (  0.3333333  0.0000000  0.2250000  )
         8           Ge  tau(   8) = (  0.4444450  0.2222233  0.2586000  )
         9           Ge  tau(   9) = (  0.3333333  0.3333333  0.2250000  )
        10           Ge  tau(  10) = (  0.4444450  0.5555566  0.2586000  )
        11           Ge  tau(  11) = (  0.3333333  0.6666667  0.2250000  )
        12           Ge  tau(  12) = (  0.4444450  0.8888899  0.2586000  )
        13           Ge  tau(  13) = (  0.6666667  0.0000000  0.2250000  )
        14           Ge  tau(  14) = (  0.7777783  0.2222233  0.2586000  )
        15           Ge  tau(  15) = (  0.6666667  0.3333333  0.2250000  )
        16           Ge  tau(  16) = (  0.7777783  0.5555566  0.2586000  )
        17           Ge  tau(  17) = (  0.6666667  0.6666667  0.2250000  )
        18           Ge  tau(  18) = (  0.7777783  0.8888899  0.2586000  )
        19           Si  tau(  19) = (  0.0000000  0.0000000  0.0000000  )
        20           C   tau(  20) = (  0.0833337  0.1666674  0.0000000  )
        21           Si  tau(  21) = (  0.0000000  0.2500000  0.0000000  )
        22           C   tau(  22) = (  0.0833337  0.4166674  0.0000000  )
        23           Si  tau(  23) = (  0.0000000  0.5000000  0.0000000  )
        24           C   tau(  24) = (  0.0833337  0.6666674  0.0000000  )
        25           Si  tau(  25) = (  0.0000000  0.7500000  0.0000000  )
        26           C   tau(  26) = (  0.0833337  0.9166674  0.0000000  )
        27           Si  tau(  27) = (  0.2500000  0.0000000  0.0000000  )
        28           C   tau(  28) = (  0.3333337  0.1666674  0.0000000  )
        29           Si  tau(  29) = (  0.2500000  0.2500000  0.0000000  )
        30           C   tau(  30) = (  0.3333337  0.4166674  0.0000000  )
        31           Si  tau(  31) = (  0.2500000  0.5000000  0.0000000  )
        32           C   tau(  32) = (  0.3333337  0.6666674  0.0000000  )
        33           Si  tau(  33) = (  0.2500000  0.7500000  0.0000000  )
        34           C   tau(  34) = (  0.3333337  0.9166674  0.0000000  )
        35           Si  tau(  35) = (  0.5000000  0.0000000  0.0000000  )
        36           C   tau(  36) = (  0.5833337  0.1666674  0.0000000  )
        37           Si  tau(  37) = (  0.5000000  0.2500000  0.0000000  )
        38           C   tau(  38) = (  0.5833337  0.4166674  0.0000000  )
        39           Si  tau(  39) = (  0.5000000  0.5000000  0.0000000  )
        40           C   tau(  40) = (  0.5833337  0.6666674  0.0000000  )
        41           Si  tau(  41) = (  0.5000000  0.7500000  0.0000000  )
        42           C   tau(  42) = (  0.5833337  0.9166674  0.0000000  )
        43           Si  tau(  43) = (  0.7500000  0.0000000  0.0000000  )
        44           C   tau(  44) = (  0.8333337  0.1666674  0.0000000  )
        45           Si  tau(  45) = (  0.7500000  0.2500000  0.0000000  )
        46           C   tau(  46) = (  0.8333337  0.4166674  0.0000000  )
        47           Si  tau(  47) = (  0.7500000  0.5000000  0.0000000  )
        48           C   tau(  48) = (  0.8333337  0.6666674  0.0000000  )
        49           Si  tau(  49) = (  0.7500000  0.7500000  0.0000000  )
        50           C   tau(  50) = (  0.8333337  0.9166674  0.0000000  )

     number of k points=    61  Methfessel-Paxton smearing, width (Ry)=  0.0060
                       cart. coord. in units 2pi/alat
        k(    1) = (   0.0000000   0.5773503   0.0000000), wk =   0.0327869
        k(    2) = (   0.0166667   0.5773503   0.0000000), wk =   0.0327869
        k(    3) = (   0.0333333   0.5773503   0.0000000), wk =   0.0327869
        k(    4) = (   0.0500000   0.5773503   0.0000000), wk =   0.0327869
        k(    5) = (   0.0666667   0.5773503   0.0000000), wk =   0.0327869
        k(    6) = (   0.0833333   0.5773503   0.0000000), wk =   0.0327869
        k(    7) = (   0.1000000   0.5773503   0.0000000), wk =   0.0327869
        k(    8) = (   0.1166667   0.5773502   0.0000000), wk =   0.0327869
        k(    9) = (   0.1333333   0.5773502   0.0000000), wk =   0.0327869
        k(   10) = (   0.1500000   0.5773502   0.0000000), wk =   0.0327869
        k(   11) = (   0.1666666   0.5773502   0.0000000), wk =   0.0327869
        k(   12) = (   0.1833333   0.5773502   0.0000000), wk =   0.0327869
        k(   13) = (   0.2000000   0.5773502   0.0000000), wk =   0.0327869
        k(   14) = (   0.2166666   0.5773502   0.0000000), wk =   0.0327869
        k(   15) = (   0.2333333   0.5773502   0.0000000), wk =   0.0327869
        k(   16) = (   0.2500000   0.5773502   0.0000000), wk =   0.0327869
        k(   17) = (   0.2666666   0.5773502   0.0000000), wk =   0.0327869
        k(   18) = (   0.2833333   0.5773502   0.0000000), wk =   0.0327869
        k(   19) = (   0.3000000   0.5773502   0.0000000), wk =   0.0327869
        k(   20) = (   0.3166666   0.5773502   0.0000000), wk =   0.0327869
        k(   21) = (   0.3333333   0.5773502   0.0000000), wk =   0.0327869
        k(   22) = (   0.3166666   0.5484827   0.0000000), wk =   0.0327869
        k(   23) = (   0.3000000   0.5196152   0.0000000), wk =   0.0327869
        k(   24) = (   0.2833333   0.4907477   0.0000000), wk =   0.0327869
        k(   25) = (   0.2666666   0.4618802   0.0000000), wk =   0.0327869
        k(   26) = (   0.2500000   0.4330127   0.0000000), wk =   0.0327869
        k(   27) = (   0.2333333   0.4041451   0.0000000), wk =   0.0327869
        k(   28) = (   0.2166666   0.3752776   0.0000000), wk =   0.0327869
        k(   29) = (   0.2000000   0.3464101   0.0000000), wk =   0.0327869
        k(   30) = (   0.1833333   0.3175426   0.0000000), wk =   0.0327869
        k(   31) = (   0.1666666   0.2886751   0.0000000), wk =   0.0327869
        k(   32) = (   0.1500000   0.2598076   0.0000000), wk =   0.0327869
        k(   33) = (   0.1333333   0.2309401   0.0000000), wk =   0.0327869
        k(   34) = (   0.1166667   0.2020726   0.0000000), wk =   0.0327869
        k(   35) = (   0.1000000   0.1732051   0.0000000), wk =   0.0327869
        k(   36) = (   0.0833333   0.1443376   0.0000000), wk =   0.0327869
        k(   37) = (   0.0666667   0.1154700   0.0000000), wk =   0.0327869
        k(   38) = (   0.0500000   0.0866025   0.0000000), wk =   0.0327869
        k(   39) = (   0.0333333   0.0577350   0.0000000), wk =   0.0327869
        k(   40) = (   0.0166667   0.0288675   0.0000000), wk =   0.0327869
        k(   41) = (   0.0000000   0.0000000   0.0000000), wk =   0.0327869
        k(   42) = (   0.0000000   0.0288675   0.0000000), wk =   0.0327869
        k(   43) = (   0.0000000   0.0577350   0.0000000), wk =   0.0327869
        k(   44) = (   0.0000000   0.0866025   0.0000000), wk =   0.0327869
        k(   45) = (   0.0000000   0.1154701   0.0000000), wk =   0.0327869
        k(   46) = (   0.0000000   0.1443376   0.0000000), wk =   0.0327869
        k(   47) = (   0.0000000   0.1732051   0.0000000), wk =   0.0327869
        k(   48) = (   0.0000000   0.2020726   0.0000000), wk =   0.0327869
        k(   49) = (   0.0000000   0.2309401   0.0000000), wk =   0.0327869
        k(   50) = (   0.0000000   0.2598076   0.0000000), wk =   0.0327869
        k(   51) = (   0.0000000   0.2886751   0.0000000), wk =   0.0327869
        k(   52) = (   0.0000000   0.3175426   0.0000000), wk =   0.0327869
        k(   53) = (   0.0000000   0.3464102   0.0000000), wk =   0.0327869
        k(   54) = (   0.0000000   0.3752777   0.0000000), wk =   0.0327869
        k(   55) = (   0.0000000   0.4041452   0.0000000), wk =   0.0327869
        k(   56) = (   0.0000000   0.4330127   0.0000000), wk =   0.0327869
        k(   57) = (   0.0000000   0.4618802   0.0000000), wk =   0.0327869
        k(   58) = (   0.0000000   0.4907477   0.0000000), wk =   0.0327869
        k(   59) = (   0.0000000   0.5196152   0.0000000), wk =   0.0327869
        k(   60) = (   0.0000000   0.5484828   0.0000000), wk =   0.0327869
        k(   61) = (   0.0000000   0.5773503   0.0000000), wk =   0.0327869

                       cryst. coord.
        k(    1) = (   0.0000000   0.5000000   0.0000000), wk =   0.0327869
        k(    2) = (   0.0166667   0.4916667   0.0000000), wk =   0.0327869
        k(    3) = (   0.0333333   0.4833333   0.0000000), wk =   0.0327869
        k(    4) = (   0.0500000   0.4750000   0.0000000), wk =   0.0327869
        k(    5) = (   0.0666667   0.4666667   0.0000000), wk =   0.0327869
        k(    6) = (   0.0833333   0.4583333   0.0000000), wk =   0.0327869
        k(    7) = (   0.1000000   0.4500000   0.0000000), wk =   0.0327869
        k(    8) = (   0.1166667   0.4416667   0.0000000), wk =   0.0327869
        k(    9) = (   0.1333333   0.4333333   0.0000000), wk =   0.0327869
        k(   10) = (   0.1500000   0.4250000   0.0000000), wk =   0.0327869
        k(   11) = (   0.1666666   0.4166667   0.0000000), wk =   0.0327869
        k(   12) = (   0.1833333   0.4083333   0.0000000), wk =   0.0327869
        k(   13) = (   0.2000000   0.4000000   0.0000000), wk =   0.0327869
        k(   14) = (   0.2166666   0.3916666   0.0000000), wk =   0.0327869
        k(   15) = (   0.2333333   0.3833333   0.0000000), wk =   0.0327869
        k(   16) = (   0.2500000   0.3750000   0.0000000), wk =   0.0327869
        k(   17) = (   0.2666666   0.3666666   0.0000000), wk =   0.0327869
        k(   18) = (   0.2833333   0.3583333   0.0000000), wk =   0.0327869
        k(   19) = (   0.3000000   0.3500000   0.0000000), wk =   0.0327869
        k(   20) = (   0.3166666   0.3416666   0.0000000), wk =   0.0327869
        k(   21) = (   0.3333333   0.3333333   0.0000000), wk =   0.0327869
        k(   22) = (   0.3166666   0.3166666   0.0000000), wk =   0.0327869
        k(   23) = (   0.3000000   0.3000000   0.0000000), wk =   0.0327869
        k(   24) = (   0.2833333   0.2833333   0.0000000), wk =   0.0327869
        k(   25) = (   0.2666666   0.2666666   0.0000000), wk =   0.0327869
        k(   26) = (   0.2500000   0.2500000   0.0000000), wk =   0.0327869
        k(   27) = (   0.2333333   0.2333333   0.0000000), wk =   0.0327869
        k(   28) = (   0.2166666   0.2166666   0.0000000), wk =   0.0327869
        k(   29) = (   0.2000000   0.2000000   0.0000000), wk =   0.0327869
        k(   30) = (   0.1833333   0.1833333   0.0000000), wk =   0.0327869
        k(   31) = (   0.1666666   0.1666667   0.0000000), wk =   0.0327869
        k(   32) = (   0.1500000   0.1500000   0.0000000), wk =   0.0327869
        k(   33) = (   0.1333333   0.1333333   0.0000000), wk =   0.0327869
        k(   34) = (   0.1166667   0.1166667   0.0000000), wk =   0.0327869
        k(   35) = (   0.1000000   0.1000000   0.0000000), wk =   0.0327869
        k(   36) = (   0.0833333   0.0833333   0.0000000), wk =   0.0327869
        k(   37) = (   0.0666667   0.0666667   0.0000000), wk =   0.0327869
        k(   38) = (   0.0500000   0.0500000   0.0000000), wk =   0.0327869
        k(   39) = (   0.0333333   0.0333333   0.0000000), wk =   0.0327869
        k(   40) = (   0.0166667   0.0166667   0.0000000), wk =   0.0327869
        k(   41) = (   0.0000000   0.0000000   0.0000000), wk =   0.0327869
        k(   42) = (   0.0000000   0.0250000   0.0000000), wk =   0.0327869
        k(   43) = (   0.0000000   0.0500000   0.0000000), wk =   0.0327869
        k(   44) = (   0.0000000   0.0750000   0.0000000), wk =   0.0327869
        k(   45) = (   0.0000000   0.1000000   0.0000000), wk =   0.0327869
        k(   46) = (   0.0000000   0.1250000   0.0000000), wk =   0.0327869
        k(   47) = (   0.0000000   0.1500000   0.0000000), wk =   0.0327869
        k(   48) = (   0.0000000   0.1750000   0.0000000), wk =   0.0327869
        k(   49) = (   0.0000000   0.2000000   0.0000000), wk =   0.0327869
        k(   50) = (   0.0000000   0.2250000   0.0000000), wk =   0.0327869
        k(   51) = (   0.0000000   0.2500000   0.0000000), wk =   0.0327869
        k(   52) = (   0.0000000   0.2750000   0.0000000), wk =   0.0327869
        k(   53) = (   0.0000000   0.3000000   0.0000000), wk =   0.0327869
        k(   54) = (   0.0000000   0.3250000   0.0000000), wk =   0.0327869
        k(   55) = (   0.0000000   0.3500000   0.0000000), wk =   0.0327869
        k(   56) = (   0.0000000   0.3750000   0.0000000), wk =   0.0327869
        k(   57) = (   0.0000000   0.4000000   0.0000000), wk =   0.0327869
        k(   58) = (   0.0000000   0.4250000   0.0000000), wk =   0.0327869
        k(   59) = (   0.0000000   0.4500000   0.0000000), wk =   0.0327869
        k(   60) = (   0.0000000   0.4750000   0.0000000), wk =   0.0327869
        k(   61) = (   0.0000000   0.5000000   0.0000000), wk =   0.0327869

     Dense  grid:   388955 G-vectors     FFT dimensions: (  81,  81, 135)

     Dynamical RAM for                 wfc:      88.97 MB

     Dynamical RAM for     wfc (w. buffer):      88.97 MB

     Dynamical RAM for           str. fact:      17.80 MB

     Dynamical RAM for           local pot:       0.00 MB

     Dynamical RAM for          nlocal pot:     461.17 MB

     Dynamical RAM for                qrad:       3.88 MB

     Dynamical RAM for          rho,v,vnew:      38.08 MB

     Dynamical RAM for           G-vectors:      25.22 MB

     Dynamical RAM for          h,s,v(r/c):      10.55 MB

     Dynamical RAM for          <psi|beta>:       1.14 MB

     Dynamical RAM for                 psi:     355.88 MB

     Dynamical RAM for                hpsi:     355.88 MB

     Dynamical RAM for      wfcinit/wfcrot:    1200.93 MB

     Estimated static dynamical RAM per process >     692.65 MB

     Estimated max dynamical RAM per process >       1.85 GB

     The potential is recalculated from file :
     /home/nano3/Desktop/RAYID/Ge+SiC/Ge+SiC_I/work/Ge+SiC_I__4.5.save/charge-density.dat

     Starting wfcs are  800 randomized atomic wfcs

     Band Structure Calculation
     Davidson diagonalization with overlap

     Computing kpt #:     1
     total cpu time spent up to now is      464.4 secs

     Computing kpt #:     2
     c_bands:  1 eigenvalues not converged
     total cpu time spent up to now is     1042.6 secs

     Computing kpt #:     3
     total cpu time spent up to now is     1484.7 secs

     Computing kpt #:     4
     total cpu time spent up to now is     1879.3 secs

     Computing kpt #:     5
     total cpu time spent up to now is     2271.9 secs

     Computing kpt #:     6
     total cpu time spent up to now is     2777.3 secs

     Computing kpt #:     7
     total cpu time spent up to now is     3398.0 secs

     Computing kpt #:     8
     total cpu time spent up to now is     3970.2 secs

     Computing kpt #:     9
     total cpu time spent up to now is     4535.6 secs

     Computing kpt #:    10
     total cpu time spent up to now is     5105.9 secs

     Computing kpt #:    11
     total cpu time spent up to now is     5675.2 secs

     Computing kpt #:    12
     total cpu time spent up to now is     6267.4 secs

     Computing kpt #:    13
     total cpu time spent up to now is     6864.0 secs

     Computing kpt #:    14
     total cpu time spent up to now is     7589.5 secs

     Computing kpt #:    15
     c_bands:  1 eigenvalues not converged
     total cpu time spent up to now is     8433.1 secs

     Computing kpt #:    16
     c_bands:  1 eigenvalues not converged
     total cpu time spent up to now is     9039.2 secs

     Computing kpt #:    17
     total cpu time spent up to now is     9710.1 secs

     Computing kpt #:    18
     total cpu time spent up to now is    10232.4 secs

     Computing kpt #:    19
     total cpu time spent up to now is    10698.9 secs

     Computing kpt #:    20
     total cpu time spent up to now is    11150.4 secs

     Computing kpt #:    21
     total cpu time spent up to now is    11792.1 secs

     Computing kpt #:    22
     total cpu time spent up to now is    12367.7 secs

     Computing kpt #:    23
     total cpu time spent up to now is    12857.8 secs

     Computing kpt #:    24
     total cpu time spent up to now is    13382.8 secs

     Computing kpt #:    25
     total cpu time spent up to now is    13881.6 secs

     Computing kpt #:    26
     total cpu time spent up to now is    14386.1 secs

     Computing kpt #:    27
     total cpu time spent up to now is    14854.0 secs

     Computing kpt #:    28
     total cpu time spent up to now is    15321.5 secs

     Computing kpt #:    29
     total cpu time spent up to now is    15838.1 secs

     Computing kpt #:    30
     total cpu time spent up to now is    16329.5 secs

     Computing kpt #:    31
     total cpu time spent up to now is    16832.2 secs

     Computing kpt #:    32
     total cpu time spent up to now is    17278.8 secs

     Computing kpt #:    33
     total cpu time spent up to now is    17945.0 secs

     Computing kpt #:    34
     total cpu time spent up to now is    18371.5 secs

     Computing kpt #:    35
     total cpu time spent up to now is    18946.9 secs

     Computing kpt #:    36
     total cpu time spent up to now is    19394.5 secs

     Computing kpt #:    37
     total cpu time spent up to now is    19974.1 secs

     Computing kpt #:    38
     total cpu time spent up to now is    20530.0 secs

     Computing kpt #:    39
     total cpu time spent up to now is    21110.1 secs

     Computing kpt #:    40
     total cpu time spent up to now is    21701.1 secs

     Computing kpt #:    41
     total cpu time spent up to now is    22259.9 secs

     Computing kpt #:    42
     total cpu time spent up to now is    22826.6 secs

     Computing kpt #:    43
     total cpu time spent up to now is    23378.6 secs

     Computing kpt #:    44
     total cpu time spent up to now is    23909.5 secs

     Computing kpt #:    45
     total cpu time spent up to now is    24423.1 secs

     Computing kpt #:    46
     total cpu time spent up to now is    24939.3 secs

     Computing kpt #:    47
     total cpu time spent up to now is    25414.5 secs

     Computing kpt #:    48
     total cpu time spent up to now is    25989.4 secs

     Computing kpt #:    49
     total cpu time spent up to now is    26566.3 secs

     Computing kpt #:    50
     total cpu time spent up to now is    27152.4 secs

     Computing kpt #:    51
     total cpu time spent up to now is    27573.6 secs

     Computing kpt #:    52
     total cpu time spent up to now is    28168.1 secs

     Computing kpt #:    53
     total cpu time spent up to now is    28757.8 secs

     Computing kpt #:    54
     total cpu time spent up to now is    29231.9 secs

     Computing kpt #:    55
     total cpu time spent up to now is    29818.3 secs

     Computing kpt #:    56
     total cpu time spent up to now is    30305.8 secs

     Computing kpt #:    57
     total cpu time spent up to now is    30638.8 secs

     Computing kpt #:    58
     total cpu time spent up to now is    30969.7 secs

     Computing kpt #:    59
     total cpu time spent up to now is    31334.5 secs

     Computing kpt #:    60
     c_bands:  1 eigenvalues not converged
     total cpu time spent up to now is    31832.6 secs

     Computing kpt #:    61
     total cpu time spent up to now is    32284.7 secs

     ethr =  5.00E-08,  avg # of iterations = 43.4

     total cpu time spent up to now is    32284.8 secs

     End of band structure calculation

          k = 0.0000 0.5774 0.0000 ( 48666 PWs)   bands (ev):

   -15.3148 -15.3044 -14.7954 -14.7954 -13.8255 -13.8252 -13.8238 -13.8236
   -13.3981 -13.3912 -12.6867 -12.6762 -12.6748 -12.6678 -12.0913 -12.0913
   -11.8627 -11.8599 -11.2897 -11.2888 -10.2748 -10.2739 -10.2716 -10.2709
   -10.1895  -9.1067  -9.1026  -9.0964  -9.0937  -9.0462  -9.0458  -8.3869
    -8.3811  -8.3649  -8.0985  -8.0976  -8.0961  -8.0960  -7.3164  -7.3164
    -7.3157  -7.3156  -6.9614  -6.9614  -6.3956  -6.3954  -5.3673  -5.3670
    -5.3537  -5.3481  -5.3447  -5.3407  -5.2984  -5.2902  -4.9895  -4.9879
    -4.8500  -4.8499  -4.8496  -4.8495  -4.7038  -4.7038  -4.3024  -4.2919
    -3.9835  -3.9740  -3.9440  -3.9438  -3.9417  -3.9411  -3.9329  -3.9313
    -3.6756  -3.6752  -3.6741  -3.6741  -3.2396  -3.2166  -3.2073  -3.1975
    -3.1028  -3.1024  -3.0408  -3.0403  -3.0026  -2.8470  -2.8465  -2.4679
    -2.4578  -2.4560  -2.4487  -2.1271  -2.0345  -2.0332  -1.9801  -1.9800
    -1.9786  -1.9774  -1.7805  -1.7804  -0.3144  -0.1000  -0.0991  -0.0895
    -0.0879   0.5214   0.7839   0.7843   0.9860   0.9873   1.0778   1.0799
     1.2604   1.2640   1.3855   1.3942   1.4297   1.4378   2.1077   2.1083

          k = 0.0167 0.5774 0.0000 ( 48606 PWs)   bands (ev):

   -15.3146 -15.3041 -14.8203 -14.7698 -13.8481 -13.8464 -13.8023 -13.8006
   -13.3978 -13.3908 -12.7102 -12.6998 -12.6533 -12.6434 -12.1022 -12.0804
   -11.8624 -11.8596 -11.3168 -11.2609 -10.2925 -10.2913 -10.2546 -10.2532
   -10.1891  -9.1295  -9.1236  -9.0737  -9.0678  -9.0589  -9.0328  -8.3867
    -8.3809  -8.3650  -8.1265  -8.1261  -8.0674  -8.0669  -7.3654  -7.3646
    -7.2676  -7.2668  -7.0021  -6.9174  -6.4529  -6.3377  -5.4239  -5.3812
    -5.3760  -5.3176  -5.3144  -5.3051  -5.2979  -5.2898  -4.9899  -4.9883
    -4.8506  -4.8502  -4.8480  -4.8475  -4.7296  -4.6769  -4.3022  -4.2917
    -3.9848  -3.9742  -3.9643  -3.9510  -3.9488  -3.9355  -3.9333  -3.8971
    -3.6994  -3.6981  -3.6511  -3.6498  -3.2394  -3.2164  -3.2050  -3.1952
    -3.1422  -3.0629  -3.0409  -3.0403  -3.0049  -2.8673  -2.8254  -2.4931
    -2.4824  -2.4328  -2.4225  -2.1259  -2.0357  -2.0343  -1.9949  -1.9936
    -1.9648  -1.9637  -1.7937  -1.7670  -0.3145  -0.1225  -0.1122  -0.0763
    -0.0649   0.5237   0.7861   0.7865   0.9593   1.0133   1.0758   1.0818
     1.2605   1.2641   1.3589   1.4046   1.4223   1.4641   2.0700   2.1474

          k = 0.0333 0.5774 0.0000 ( 48590 PWs)   bands (ev):

   -15.3140 -15.3035 -14.8451 -14.7439 -13.8705 -13.8688 -13.7791 -13.7774
   -13.3972 -13.3903 -12.7389 -12.7285 -12.6266 -12.6166 -12.1133 -12.0697
   -11.8616 -11.8588 -11.3442 -11.2323 -10.3118 -10.3106 -10.2363 -10.2349
   -10.1883  -9.1546  -9.1487  -9.0714  -9.0447  -9.0385  -9.0201  -8.3865
    -8.3806  -8.3653  -8.1550  -8.1547  -8.0372  -8.0367  -7.4162  -7.4153
    -7.2190  -7.2183  -7.0411  -6.8734  -6.5103  -6.2799  -5.4820  -5.4125
    -5.4073  -5.2979  -5.2896  -5.2852  -5.2808  -5.2478  -4.9913  -4.9896
    -4.8509  -4.8505  -4.8458  -4.8454  -4.7551  -4.6497  -4.3057  -4.2952
    -4.0030  -3.9819  -3.9758  -3.9572  -3.9550  -3.9263  -3.9241  -3.8635
    -3.7226  -3.7213  -3.6266  -3.6253  -3.2388  -3.2159  -3.2073  -3.1975
    -3.1818  -3.0411  -3.0405  -3.0232  -3.0119  -2.8871  -2.8034  -2.5237
    -2.5131  -2.4043  -2.3939  -2.1224  -2.0392  -2.0379  -2.0104  -2.0090
    -1.9505  -1.9494  -1.8068  -1.7511  -0.3147  -0.1449  -0.1351  -0.0527
    -0.0408   0.5307   0.7925   0.7929   0.9312   1.0390   1.0729   1.0841
     1.2608   1.2644   1.3297   1.3768   1.4553   1.4948   2.0320   2.1077

          k = 0.0500 0.5774 0.0000 ( 48588 PWs)   bands (ev):

   -15.3128 -15.3023 -14.8695 -14.7176 -13.8927 -13.8911 -13.7555 -13.7538
   -13.3962 -13.3893 -12.7684 -12.7581 -12.6006 -12.5906 -12.1246 -12.0594
   -11.8604 -11.8576 -11.3711 -11.2034 -10.3314 -10.3302 -10.2185 -10.2171
   -10.1868  -9.1780  -9.1721  -9.0850  -9.0159  -9.0092  -9.0054  -8.3860
    -8.3800  -8.3657  -8.1830  -8.1826  -8.0067  -8.0061  -7.4668  -7.4660
    -7.1711  -7.1704  -7.0792  -6.8283  -6.5677  -6.2222  -5.5401  -5.4437
    -5.4386  -5.2968  -5.2884  -5.2537  -5.2491  -5.1899  -4.9934  -4.9918
    -4.8514  -4.8510  -4.8429  -4.8424  -4.7805  -4.6222  -4.3112  -4.3007
    -4.0362  -3.9857  -3.9784  -3.9624  -3.9602  -3.9162  -3.9140  -3.8312
    -3.7459  -3.7446  -3.6023  -3.6010  -3.2376  -3.2212  -3.2147  -3.2098
    -3.2001  -3.0413  -3.0408  -3.0234  -2.9835  -2.9061  -2.7808  -2.5552
    -2.5447  -2.3765  -2.3660  -2.1167  -2.0451  -2.0437  -2.0263  -2.0248
    -1.9368  -1.9358  -1.8206  -1.7385  -0.3152  -0.1668  -0.1575  -0.0290
    -0.0164   0.5423   0.8030   0.8034   0.9024   1.0625   1.0708   1.0863
     1.2613   1.2649   1.3018   1.3501   1.4894   1.5264   1.9940   2.0620

          k = 0.0667 0.5774 0.0000 ( 48594 PWs)   bands (ev):

   -15.3113 -15.3008 -14.8935 -14.6911 -13.9145 -13.9129 -13.7316 -13.7300
   -13.3949 -13.3880 -12.7985 -12.7883 -12.5753 -12.5654 -12.1361 -12.0494
   -11.8587 -11.8559 -11.3976 -11.1740 -10.3511 -10.3500 -10.2015 -10.1998
   -10.1847  -9.2004  -9.1945  -9.0988  -8.9984  -8.9818  -8.9766  -8.3854
    -8.3792  -8.3662  -8.2101  -8.2097  -7.9759  -7.9753  -7.5177  -7.5169
    -7.1237  -7.1230  -7.1160  -6.7822  -6.6248  -6.1644  -5.5976  -5.4748
    -5.4698  -5.2959  -5.2876  -5.2219  -5.2171  -5.1319  -4.9966  -4.9950
    -4.8514  -4.8509  -4.8391  -4.8386  -4.8054  -4.5956  -4.3184  -4.3079
    -4.0711  -3.9898  -3.9823  -3.9666  -3.9643  -3.9052  -3.9029  -3.7995
    -3.7691  -3.7678  -3.5770  -3.5756  -3.2606  -3.2359  -3.2139  -3.2131
    -3.2042  -3.0418  -3.0412  -3.0390  -2.9439  -2.9242  -2.7575  -2.5883
    -2.5777  -2.3496  -2.3391  -2.1089  -2.0531  -2.0517  -2.0423  -2.0407
    -1.9238  -1.9228  -1.8345  -1.7265  -0.3158  -0.1880  -0.1792  -0.0052
     0.0080   0.5585   0.8175   0.8179   0.8730   1.0652   1.0877   1.0886
     1.2620   1.2656   1.2752   1.3244   1.5243   1.5587   1.9561   2.0167

          k = 0.0833 0.5774 0.0000 ( 48584 PWs)   bands (ev):

   -15.3093 -15.2988 -14.9170 -14.6641 -13.9361 -13.9345 -13.7075 -13.7058
   -13.3933 -13.3864 -12.8291 -12.8189 -12.5510 -12.5410 -12.1476 -12.0396
   -11.8565 -11.8537 -11.4238 -11.1442 -10.3709 -10.3698 -10.1858 -10.1831
   -10.1812  -9.2210  -9.2151  -9.1128  -8.9872  -8.9492  -8.9437  -8.3847
    -8.3782  -8.3667  -8.2362  -8.2359  -7.9448  -7.9442  -7.5688  -7.5679
    -7.1508  -7.0773  -7.0766  -6.7350  -6.6817  -6.1068  -5.6563  -5.5056
    -5.5006  -5.2947  -5.2864  -5.1898  -5.1850  -5.0733  -5.0006  -4.9989
    -4.8498  -4.8493  -4.8345  -4.8341  -4.8304  -4.5672  -4.3299  -4.3193
    -4.1068  -3.9947  -3.9872  -3.9697  -3.9674  -3.8932  -3.8910  -3.7926
    -3.7913  -3.7681  -3.5512  -3.5499  -3.2997  -3.2333  -3.2168  -3.2107
    -3.2072  -3.0586  -3.0423  -3.0417  -2.9417  -2.9041  -2.7335  -2.6207
    -2.6100  -2.3237  -2.3131  -2.0994  -2.0632  -2.0619  -2.0583  -2.0567
    -1.9115  -1.9105  -1.8485  -1.7146  -0.3166  -0.2085  -0.2001   0.0186
     0.0326   0.5791   0.8359   0.8363   0.8432   1.0617   1.0897   1.1104
     1.2501   1.2629   1.2666   1.2999   1.5606   1.5922   1.9181   1.9716

          k = 0.1000 0.5774 0.0000 ( 48562 PWs)   bands (ev):

   -15.3069 -15.2964 -14.9402 -14.6367 -13.9573 -13.9556 -13.6830 -13.6814
   -13.3912 -13.3843 -12.8603 -12.8500 -12.5276 -12.5177 -12.1591 -12.0302
   -11.8537 -11.8510 -11.4495 -11.1140 -10.3908 -10.3897 -10.1800 -10.1683
   -10.1671  -9.2405  -9.2347  -9.1265  -8.9764  -8.9153  -8.9097  -8.3842
    -8.3772  -8.3672  -8.2612  -8.2608  -7.9137  -7.9130  -7.6201  -7.6193
    -7.1832  -7.0315  -7.0309  -6.7384  -6.6858  -6.0493  -5.7143  -5.5366
    -5.5317  -5.2934  -5.2853  -5.1580  -5.1531  -5.0161  -5.0054  -5.0038
    -4.8548  -4.8462  -4.8457  -4.8287  -4.8282  -4.5384  -4.3419  -4.3314
    -4.1425  -4.0008  -3.9934  -3.9717  -3.9694  -3.8804  -3.8782  -3.8146
    -3.8133  -3.7383  -3.5255  -3.5241  -3.3388  -3.2313  -3.2217  -3.2123
    -3.2089  -3.0815  -3.0429  -3.0423  -2.9581  -2.8646  -2.7090  -2.6533
    -2.6426  -2.2991  -2.2885  -2.0886  -2.0753  -2.0748  -2.0734  -2.0725
    -1.9001  -1.8990  -1.8614  -1.7021  -0.3177  -0.2281  -0.2201   0.0424
     0.0570   0.6041   0.8128   0.8580   0.8583   1.0579   1.0911   1.1316
     1.2265   1.2640   1.2676   1.2766   1.5976   1.6263   1.8801   1.9273

          k = 0.1167 0.5774 0.0000 ( 48566 PWs)   bands (ev):

   -15.3041 -15.2936 -14.9630 -14.6090 -13.9782 -13.9765 -13.6585 -13.6568
   -13.3887 -13.3817 -12.8919 -12.8816 -12.5053 -12.4953 -12.1708 -12.0213
   -11.8506 -11.8478 -11.4748 -11.0837 -10.4107 -10.4097 -10.1761 -10.1535
   -10.1520  -9.2580  -9.2521  -9.1408  -8.9674  -8.8803  -8.8746  -8.3838
    -8.3759  -8.3674  -8.2850  -8.2846  -7.8826  -7.8819  -7.6707  -7.6698
    -7.2147  -6.9874  -6.9868  -6.7951  -6.6376  -5.9921  -5.7729  -5.5673
    -5.5623  -5.2921  -5.2840  -5.1255  -5.1207  -5.0114  -5.0095  -4.9589
    -4.8783  -4.8424  -4.8419  -4.8229  -4.8224  -4.5092  -4.3565  -4.3460
    -4.1791  -4.0091  -4.0018  -3.9726  -3.9704  -3.8668  -3.8646  -3.8363
    -3.8350  -3.7086  -3.4996  -3.4983  -3.3776  -3.2289  -3.2282  -3.2189
    -3.2068  -3.1071  -3.0437  -3.0431  -2.9736  -2.8254  -2.6869  -2.6839
    -2.6759  -2.2756  -2.2651  -2.0906  -2.0898  -2.0881  -2.0873  -2.0757
    -1.8896  -1.8885  -1.8759  -1.6916  -0.3189  -0.2467  -0.2391   0.0660
     0.0814   0.6334   0.7820   0.8833   0.8837   1.0540   1.0920   1.1514
     1.2044   1.2545   1.2653   1.2689   1.6348   1.6604   1.8421   1.8840

          k = 0.1333 0.5774 0.0000 ( 48556 PWs)   bands (ev):

   -15.3009 -15.2904 -14.9855 -14.5808 -13.9987 -13.9971 -13.6337 -13.6320
   -13.3858 -13.3789 -12.9238 -12.9135 -12.4840 -12.4741 -12.1825 -12.0127
   -11.8470 -11.8442 -11.4997 -11.0529 -10.4305 -10.4295 -10.1719 -10.1395
   -10.1379  -9.2745  -9.2686  -9.1551  -8.9583  -8.8439  -8.8382  -8.3841
    -8.3746  -8.3672  -8.3075  -8.3071  -7.8514  -7.8506  -7.7225  -7.7216
    -7.2428  -6.9435  -6.9429  -6.8513  -6.5877  -5.9351  -5.8306  -5.5980
    -5.5931  -5.2906  -5.2827  -5.0937  -5.0888  -5.0179  -5.0160  -4.9036
    -4.8990  -4.8367  -4.8362  -4.8170  -4.8165  -4.4796  -4.3726  -4.3621
    -4.2157  -4.0177  -4.0105  -3.9726  -3.9704  -3.8572  -3.8559  -3.8524
    -3.8502  -3.6788  -3.4728  -3.4715  -3.4162  -3.2366  -3.2274  -3.2268
    -3.2054  -3.1344  -3.0446  -3.0439  -2.9881  -2.7868  -2.7213  -2.7095
    -2.6583  -2.2539  -2.2437  -2.1059  -2.1050  -2.1034  -2.1026  -2.0625
    -1.8901  -1.8801  -1.8789  -1.6799  -0.3203  -0.2642  -0.2570   0.0894
     0.1057   0.6668   0.7509   0.9117   0.9120   1.0500   1.0927   1.1698
     1.1838   1.2339   1.2667   1.2703   1.6712   1.6935   1.8041   1.8425

          k = 0.1500 0.5774 0.0000 ( 48568 PWs)   bands (ev):

   -15.2973 -15.2867 -15.0075 -14.5526 -14.0189 -14.0172 -13.6087 -13.6071
   -13.3826 -13.3757 -12.9562 -12.9459 -12.4639 -12.4540 -12.1942 -12.0045
   -11.8428 -11.8400 -11.5242 -11.0217 -10.4504 -10.4494 -10.1672 -10.1266
   -10.1249  -9.2888  -9.2830  -9.1695  -8.9502  -8.8066  -8.8008  -8.3850
    -8.3731  -8.3664  -8.3286  -8.3282  -7.8203  -7.8196  -7.7750  -7.7740
    -7.2697  -6.9074  -6.9005  -6.9000  -6.5371  -5.8893  -5.8784  -5.6293
    -5.6244  -5.2892  -5.2814  -5.0622  -5.0573  -5.0253  -5.0231  -4.9237
    -4.8451  -4.8304  -4.8288  -4.8109  -4.8104  -4.4497  -4.3909  -4.3805
    -4.2528  -4.0275  -4.0205  -3.9717  -3.9695  -3.8773  -3.8760  -3.8373
    -3.8350  -3.6496  -3.4548  -3.4467  -3.4453  -3.2456  -3.2367  -3.2261
    -3.2056  -3.1605  -3.0456  -3.0449  -3.0016  -2.7572  -2.7554  -2.7345
    -2.6321  -2.2346  -2.2248  -2.1209  -2.1203  -2.1191  -2.1186  -2.0483
    -1.9043  -1.8717  -1.8704  -1.6699  -0.3219  -0.2805  -0.2737   0.1126
     0.1297   0.7042   0.7194   0.9428   0.9431   1.0460   1.0930   1.1648
     1.1867   1.2147   1.2682   1.2719   1.7033   1.7207   1.7661   1.8066

          k = 0.1667 0.5774 0.0000 ( 48582 PWs)   bands (ev):

   -15.2931 -15.2826 -15.0291 -14.5241 -14.0387 -14.0371 -13.5835 -13.5818
   -13.3791 -13.3722 -12.9888 -12.9785 -12.4448 -12.4349 -12.2058 -11.9970
   -11.8382 -11.8354 -11.5482 -10.9902 -10.4702 -10.4692 -10.1620 -10.1147
   -10.1129  -9.3010  -9.2952  -9.1839  -8.9431  -8.7685  -8.7627  -8.3867
    -8.3713  -8.3652  -8.3482  -8.3476  -7.8272  -7.8263  -7.7895  -7.7887
    -7.2952  -6.9632  -6.8589  -6.8584  -6.4847  -5.9482  -5.8221  -5.6603
    -5.6553  -5.2878  -5.2802  -5.0333  -5.0314  -5.0309  -5.0265  -4.9450
    -4.8243  -4.8231  -4.8044  -4.8039  -4.7869  -4.4198  -4.4118  -4.4013
    -4.2922  -4.0386  -4.0318  -3.9704  -3.9682  -3.8968  -3.8954  -3.8213
    -3.8191  -3.6204  -3.4928  -3.4201  -3.4188  -3.2542  -3.2455  -3.2331
    -3.2083  -3.1772  -3.0468  -3.0461  -3.0139  -2.7898  -2.7814  -2.7050
    -2.6054  -2.2175  -2.2089  -2.1382  -2.1370  -2.1323  -2.1312  -2.0335
    -1.9183  -1.8645  -1.8631  -1.6607  -0.3238  -0.2955  -0.2891   0.1354
     0.1534   0.6875   0.7455   0.9762   0.9764   1.0421   1.0930   1.1477
     1.1969   1.2023   1.2699   1.2737   1.7138   1.7215   1.7283   1.7937

          k = 0.1833 0.5774 0.0000 ( 48592 PWs)   bands (ev):

   -15.2886 -15.2781 -15.0503 -14.4949 -14.0582 -14.0566 -13.5582 -13.5565
   -13.3753 -13.3684 -13.0217 -13.0114 -12.4269 -12.4170 -12.2175 -11.9899
   -11.8332 -11.8304 -11.5717 -10.9583 -10.4899 -10.4889 -10.1562 -10.1041
   -10.1023  -9.3116  -9.3057  -9.1982  -8.9367  -8.7292  -8.7234  -8.3889
    -8.3695  -8.3660  -8.3654  -8.3635  -7.8792  -7.8782  -7.7589  -7.7581
    -7.3176  -7.0186  -6.8179  -6.8174  -6.4328  -6.0055  -5.7663  -5.6895
    -5.6846  -5.2871  -5.2797  -5.0420  -5.0394  -5.0002  -4.9954  -4.9662
    -4.8152  -4.8143  -4.7975  -4.7970  -4.7302  -4.4368  -4.4263  -4.3895
    -4.3300  -4.0510  -4.0444  -3.9694  -3.9673  -3.9139  -3.9125  -3.8047
    -3.8025  -3.5922  -3.5307  -3.3937  -3.3924  -3.2635  -3.2578  -3.2550
    -3.2086  -3.1814  -3.0480  -3.0473  -3.0251  -2.8252  -2.8160  -2.6669
    -2.5783  -2.2060  -2.2001  -2.1567  -2.1555  -2.1405  -2.1371  -2.0181
    -1.9324  -1.8586  -1.8570  -1.6525  -0.3260  -0.3090  -0.3031   0.1578
     0.1768   0.6553   0.7905   1.0113   1.0115   1.0382   1.0925   1.1323
     1.1813   1.2158   1.2718   1.2756   1.6871   1.6909   1.6919   1.8176

          k = 0.2000 0.5774 0.0000 ( 48596 PWs)   bands (ev):

   -15.2838 -15.2732 -15.0710 -14.4653 -14.0774 -14.0758 -13.5325 -13.5308
   -13.3710 -13.3641 -13.0549 -13.0446 -12.4102 -12.4004 -12.2291 -11.9834
   -11.8276 -11.8248 -11.5949 -10.9261 -10.5094 -10.5085 -10.1499 -10.0949
   -10.0930  -9.3206  -9.3147  -9.2125  -8.9312  -8.6892  -8.6835  -8.3919
    -8.3819  -8.3813  -8.3673  -8.3615  -7.9311  -7.9302  -7.7287  -7.7278
    -7.3384  -7.0737  -6.7785  -6.7780  -6.3804  -6.0626  -5.7189  -5.7140
    -5.7112  -5.2863  -5.2792  -5.0510  -5.0481  -4.9867  -4.9691  -4.9642
    -4.8057  -4.8048  -4.7902  -4.7897  -4.6733  -4.4614  -4.4509  -4.3680
    -4.3584  -4.0655  -4.0592  -3.9712  -3.9694  -3.9266  -3.9250  -3.7874
    -3.7852  -3.5683  -3.5625  -3.3667  -3.3654  -3.2919  -3.2747  -3.2664
    -3.2057  -3.1799  -3.0494  -3.0487  -3.0351  -2.8604  -2.8509  -2.6285
    -2.5506  -2.2040  -2.2018  -2.1758  -2.1747  -2.1407  -2.1335  -2.0025
    -1.9464  -1.8540  -1.8523  -1.6448  -0.3287  -0.3209  -0.3156   0.1797
     0.1998   0.6229   0.8388   1.0345   1.0478   1.0480   1.0917   1.1186
     1.1674   1.2278   1.2738   1.2776   1.6496   1.6527   1.6534   1.8547

          k = 0.2167 0.5774 0.0000 ( 48594 PWs)   bands (ev):

   -15.2784 -15.2678 -15.0914 -14.4354 -14.0963 -14.0947 -13.5066 -13.5049
   -13.3664 -13.3594 -13.0883 -13.0780 -12.3948 -12.3850 -12.2407 -11.9775
   -11.8216 -11.8188 -11.6176 -10.8936 -10.5287 -10.5278 -10.1431 -10.0872
   -10.0852  -9.3278  -9.3220  -9.2267  -8.9263  -8.6490  -8.6432  -8.3967
    -8.3953  -8.3945  -8.3647  -8.3591  -7.9830  -7.9820  -7.6986  -7.6977
    -7.3563  -7.1285  -6.7402  -6.7398  -6.3267  -6.1196  -5.7487  -5.7438
    -5.6568  -5.2862  -5.2795  -5.0603  -5.0570  -5.0064  -4.9377  -4.9329
    -4.7945  -4.7937  -4.7826  -4.7821  -4.6166  -4.4885  -4.4780  -4.4064
    -4.3269  -4.0807  -4.0746  -3.9791  -3.9776  -3.9313  -3.9294  -3.7694
    -3.7672  -3.6055  -3.5354  -3.3397  -3.3384  -3.3296  -3.2849  -3.2769
    -3.2012  -3.1761  -3.0509  -3.0501  -3.0437  -2.8958  -2.8862  -2.5902
    -2.5225  -2.2116  -2.2112  -2.1954  -2.1944  -2.1331  -2.1235  -1.9866
    -1.9609  -1.8508  -1.8490  -1.6375  -0.3337  -0.3292  -0.3264   0.2012
     0.2223   0.5901   0.8904   1.0312   1.0849   1.0850   1.0903   1.1067
     1.1553   1.2382   1.2761   1.2799   1.6107   1.6127   1.6137   1.8953

          k = 0.2333 0.5774 0.0000 ( 48580 PWs)   bands (ev):

   -15.2725 -15.2619 -15.1114 -14.4053 -14.1148 -14.1132 -13.4806 -13.4789
   -13.3613 -13.3543 -13.1218 -13.1115 -12.3807 -12.3709 -12.2521 -11.9723
   -11.8150 -11.8122 -11.6399 -10.8607 -10.5478 -10.5469 -10.1357 -10.0809
   -10.0788  -9.3333  -9.3274  -9.2409  -8.9226  -8.6073  -8.6015  -8.4080
    -8.4071  -8.3989  -8.3616  -8.3560  -8.0342  -8.0333  -7.6690  -7.6681
    -7.3722  -7.1829  -6.7028  -6.7024  -6.2734  -6.1770  -5.7781  -5.7732
    -5.6035  -5.2870  -5.2806  -5.0695  -5.0657  -5.0252  -4.9062  -4.9014
    -4.7828  -4.7819  -4.7748  -4.7743  -4.5603  -4.5172  -4.5068  -4.4454
    -4.2951  -4.0974  -4.0916  -3.9931  -3.9918  -3.9287  -3.9267  -3.7508
    -3.7486  -3.6424  -3.5089  -3.3695  -3.3118  -3.3104  -3.2954  -3.2877
    -3.1957  -3.1710  -3.0526  -3.0521  -3.0505  -2.9309  -2.9212  -2.5521
    -2.4940  -2.2248  -2.2234  -2.2153  -2.2143  -2.1220  -2.1112  -1.9763
    -1.9688  -1.8490  -1.8471  -1.6312  -0.3416  -0.3360  -0.3325   0.2220
     0.2444   0.5571   0.9446   1.0285   1.0885   1.0966   1.1219   1.1221
     1.1453   1.2470   1.2786   1.2825   1.5713   1.5725   1.5739   1.9371

          k = 0.2500 0.5774 0.0000 ( 48562 PWs)   bands (ev):

   -15.2663 -15.2556 -15.1310 -14.3747 -14.1330 -14.1314 -13.4544 -13.4527
   -13.3559 -13.3490 -13.1555 -13.1451 -12.3679 -12.3581 -12.2635 -11.9677
   -11.8080 -11.8052 -11.6616 -10.8276 -10.5668 -10.5659 -10.1277 -10.0764
   -10.0742  -9.3364  -9.3306  -9.2550  -8.9192  -8.5647  -8.5590  -8.4176
    -8.4167  -8.4032  -8.3586  -8.3531  -8.0848  -8.0838  -7.6399  -7.6389
    -7.3851  -7.2371  -6.6673  -6.6669  -6.2323  -6.2196  -5.8070  -5.8022
    -5.5513  -5.2890  -5.2831  -5.0784  -5.0739  -5.0429  -4.8755  -4.8706
    -4.7703  -4.7694  -4.7658  -4.7652  -4.5488  -4.5383  -4.5042  -4.4839
    -4.2628  -4.1147  -4.1092  -4.0096  -4.0083  -3.9217  -3.9196  -3.7316
    -3.7294  -3.6790  -3.4829  -3.4108  -3.3072  -3.2998  -3.2842  -3.2828
    -3.1903  -3.1658  -3.0574  -3.0540  -3.0530  -2.9663  -2.9566  -2.5143
    -2.4651  -2.2395  -2.2377  -2.2351  -2.2343  -2.1100  -2.0985  -1.9889
    -1.9535  -1.8488  -1.8468  -1.6242  -0.3487  -0.3435  -0.3359   0.2423
     0.2659   0.5239   0.9983   1.0291   1.0858   1.0895   1.1374   1.1578
     1.1581   1.2540   1.2817   1.2856   1.5317   1.5326   1.5345   1.9787

          k = 0.2667 0.5774 0.0000 ( 48562 PWs)   bands (ev):

   -15.2596 -15.2488 -15.1498 -14.3438 -14.1505 -14.1489 -13.4283 -13.4265
   -13.3501 -13.3432 -13.1894 -13.1791 -12.3566 -12.3467 -12.2747 -11.9638
   -11.8005 -11.7977 -11.6831 -10.7940 -10.5854 -10.5845 -10.1191 -10.0736
   -10.0713  -9.3383  -9.3325  -9.2689  -8.9163  -8.5217  -8.5159  -8.4251
    -8.4240  -8.4079  -8.3552  -8.3497  -8.1367  -8.1357  -7.6112  -7.6103
    -7.3956  -7.2908  -6.6328  -6.6324  -6.2887  -6.1656  -5.8374  -5.8325
    -5.5007  -5.2925  -5.2872  -5.0865  -5.0812  -5.0591  -4.8459  -4.8410
    -4.7581  -4.7575  -4.7550  -4.7540  -4.5815  -4.5711  -4.5232  -4.4460
    -4.2303  -4.1342  -4.1291  -4.0267  -4.0255  -3.9122  -3.9100  -3.7154
    -3.7116  -3.7096  -3.4558  -3.4529  -3.3168  -3.3097  -3.2571  -3.2557
    -3.1837  -3.1594  -3.0619  -3.0558  -3.0547  -3.0028  -2.9930  -2.4768
    -2.4358  -2.2554  -2.2550  -2.2539  -2.2523  -2.0992  -2.0873  -2.0023
    -1.9370  -1.8501  -1.8480  -1.6176  -0.3542  -0.3492  -0.3393   0.2618
     0.2868   0.4905   1.0182   1.0612   1.0808   1.0911   1.1318   1.1914
     1.1918   1.2595   1.2859   1.2898   1.4923   1.4930   1.4950   2.0194

          k = 0.2833 0.5774 0.0000 ( 48550 PWs)   bands (ev):

   -15.2527 -15.2417 -15.1685 -14.3128 -14.1679 -14.1663 -13.4019 -13.4001
   -13.3439 -13.3370 -13.2234 -13.2131 -12.3467 -12.3367 -12.2857 -11.9607
   -11.7925 -11.7897 -11.7039 -10.7602 -10.6038 -10.6029 -10.1100 -10.0725
   -10.0702  -9.3382  -9.3323  -9.2827  -8.9141  -8.4784  -8.4727  -8.4299
    -8.4288  -8.4130  -8.3519  -8.3464  -8.1863  -8.1854  -7.5831  -7.5821
    -7.4033  -7.3442  -6.5998  -6.5994  -6.3446  -6.1113  -5.8661  -5.8612
    -5.4521  -5.2981  -5.2935  -5.0938  -5.0874  -5.0735  -4.8156  -4.8108
    -4.7493  -4.7486  -4.7393  -4.7383  -4.6153  -4.6049  -4.5641  -4.3906
    -4.1973  -4.1553  -4.1505  -4.0442  -4.0430  -3.9006  -3.8985  -3.7510
    -3.6915  -3.6894  -3.4958  -3.4310  -3.3286  -3.3218  -3.2297  -3.2282
    -3.1770  -3.1529  -3.0650  -3.0575  -3.0565  -3.0390  -3.0290  -2.4396
    -2.4062  -2.2749  -2.2740  -2.2702  -2.2678  -2.0890  -2.0766  -2.0160
    -1.9205  -1.8531  -1.8509  -1.6137  -0.3580  -0.3533  -0.3429   0.2806
     0.3070   0.4571   1.0178   1.0741   1.0780   1.1220   1.1409   1.2206
     1.2210   1.2632   1.2925   1.2962   1.4533   1.4541   1.4556   2.0592

          k = 0.3000 0.5774 0.0000 ( 48566 PWs)   bands (ev):

   -15.2454 -15.2342 -15.1866 -14.2812 -14.1850 -14.1834 -13.3756 -13.3738
   -13.3373 -13.3304 -13.2574 -13.2471 -12.3383 -12.3280 -12.2964 -11.9584
   -11.7840 -11.7813 -11.7244 -10.7262 -10.6220 -10.6211 -10.1005 -10.0734
   -10.0710  -9.3363  -9.3304  -9.2962  -8.9126  -8.4388  -8.4361  -8.4276
    -8.4238  -8.4186  -8.3484  -8.3429  -8.2374  -8.2364  -7.5556  -7.5546
    -7.4089  -7.3972  -6.5685  -6.5681  -6.4004  -6.0569  -5.8946  -5.8898
    -5.4065  -5.3063  -5.3024  -5.0999  -5.0920  -5.0851  -4.7858  -4.7810
    -4.7405  -4.7398  -4.7222  -4.7212  -4.6516  -4.6412  -4.6039  -4.3355
    -4.1786  -4.1742  -4.1642  -4.0617  -4.0605  -3.8874  -3.8853  -3.7863
    -3.6707  -3.6686  -3.5391  -3.4067  -3.3403  -3.3338  -3.2024  -3.2007
    -3.1701  -3.1464  -3.0755  -3.0691  -3.0617  -3.0593  -3.0582  -2.4028
    -2.3763  -2.2942  -2.2933  -2.2858  -2.2833  -2.0803  -2.0673  -2.0288
    -1.9039  -1.8576  -1.8553  -1.6091  -0.3600  -0.3555  -0.3467   0.2982
     0.3265   0.4240   1.0166   1.0717   1.0764   1.1223   1.2019   1.2424
     1.2427   1.2651   1.3038   1.3067   1.4147   1.4159   1.4165   2.0974

          k = 0.3167 0.5774 0.0000 ( 48554 PWs)   bands (ev):

   -15.2380 -15.2261 -15.2038 -14.2494 -14.2017 -14.2001 -13.3498 -13.3477
   -13.3297 -13.3231 -13.2913 -13.2810 -12.3317 -12.3207 -12.3066 -11.9570
   -11.7750 -11.7724 -11.7445 -10.6917 -10.6399 -10.6390 -10.0905 -10.0759
   -10.0735  -9.3328  -9.3268  -9.3093  -8.9116  -8.4344  -8.4332  -8.4247
    -8.3872  -8.3815  -8.3448  -8.3394  -8.2880  -8.2871  -7.5286  -7.5276
    -7.4496  -7.4119  -6.5390  -6.5386  -6.4558  -6.0024  -5.9228  -5.9181
    -5.3652  -5.3170  -5.3137  -5.1041  -5.0945  -5.0924  -4.7565  -4.7519
    -4.7313  -4.7303  -4.7040  -4.7027  -4.6885  -4.6785  -4.6440  -4.2809
    -4.2018  -4.1976  -4.1292  -4.0791  -4.0778  -3.8727  -3.8705  -3.8211
    -3.6494  -3.6473  -3.5828  -3.3832  -3.3512  -3.3450  -3.1764  -3.1737
    -3.1616  -3.1388  -3.1101  -3.1009  -3.0646  -3.0611  -3.0599  -2.3665
    -2.3460  -2.3129  -2.3121  -2.3013  -2.2987  -2.0731  -2.0591  -2.0408
    -1.8872  -1.8636  -1.8614  -1.6072  -0.3604  -0.3559  -0.3507   0.3141
     0.3446   0.3925   1.0157   1.0702   1.0748   1.1209   1.2538   1.2555
     1.2649   1.2711   1.3203   1.3222   1.3762   1.3783   1.3787   2.1323

          k = 0.3333 0.5774 0.0000 ( 48552 PWs)   bands (ev):

   -15.2332 -15.2185 -15.2169 -14.2188 -14.2164 -14.2164 -13.3301 -13.3249
   -13.3236 -13.3173 -13.3162 -13.3111 -12.3284 -12.3150 -12.3143 -11.9565
   -11.7659 -11.7653 -11.7615 -10.6578 -10.6567 -10.6564 -10.0821 -10.0785
   -10.0778  -9.3292  -9.3234  -9.3192  -8.9114  -8.4326  -8.4308  -8.4307
    -8.3436  -8.3420  -8.3397  -8.3367  -8.3343  -8.3326  -7.5028  -7.5014
    -7.5011  -7.4130  -6.5110  -6.5104  -6.5103  -5.9526  -5.9475  -5.9443
    -5.3322  -5.3293  -5.3275  -5.1058  -5.0957  -5.0944  -4.7307  -4.7290
    -4.7260  -4.7205  -4.7173  -4.7157  -4.6845  -4.6837  -4.6826  -4.2282
    -4.2273  -4.2223  -4.0966  -4.0947  -4.0946  -3.8565  -3.8564  -3.8531
    -3.6280  -3.6274  -3.6245  -3.3625  -3.3623  -3.3542  -3.1609  -3.1547
    -3.1524  -3.1349  -3.1324  -3.1264  -3.0631  -3.0625  -3.0611  -2.3311
    -2.3310  -2.3300  -2.3180  -2.3146  -2.3135  -2.0688  -2.0535  -2.0481
    -1.8726  -1.8691  -1.8689  -1.6066  -0.3598  -0.3553  -0.3534   0.3233
     0.3554   0.3733   1.0154   1.0698   1.0741   1.1205   1.2596   1.2597
     1.2629   1.3381   1.3394   1.3395   1.3413   1.3421   1.3424   2.1566

          k = 0.3167 0.5485 0.0000 ( 48558 PWs)   bands (ev):

   -15.2577 -15.2088 -15.1996 -14.2495 -14.2479 -14.1523 -13.3940 -13.3837
   -13.3092 -13.3023 -13.2670 -13.2652 -12.3419 -12.3141 -12.3067 -11.9585
   -11.8021 -11.7452 -11.7423 -10.6916 -10.6907 -10.5870 -10.0956 -10.0927
   -10.0564  -9.3498  -9.3095  -9.3038  -8.9124  -8.4459  -8.4407  -8.4398
    -8.4183  -8.4170  -8.3329  -8.3275  -8.2471  -8.2413  -7.6050  -7.4517
    -7.4507  -7.4091  -6.6206  -6.4585  -6.4580  -6.0044  -5.9995  -5.8376
    -5.3677  -5.3657  -5.2876  -5.1003  -5.0914  -5.0791  -4.8081  -4.7978
    -4.7667  -4.7055  -4.7051  -4.6647  -4.6600  -4.6399  -4.6388  -4.2849
    -4.2820  -4.1294  -4.1281  -4.1205  -4.0281  -3.9208  -3.8198  -3.8175
    -3.7142  -3.5831  -3.5810  -3.3847  -3.3803  -3.3153  -3.2216  -3.2120
    -3.1393  -3.1159  -3.0870  -3.0853  -3.0656  -3.0644  -3.0515  -2.3652
    -2.3645  -2.3471  -2.3442  -2.2602  -2.2540  -2.0842  -2.0519  -2.0404
    -1.8914  -1.8889  -1.8363  -1.6092  -0.3669  -0.3494  -0.3461   0.2767
     0.3708   0.4010   1.0169   1.0699   1.0783   1.1225   1.2240   1.2593
     1.2618   1.2713   1.2724   1.2886   1.3685   1.3689   1.4910   2.1076

          k = 0.3000 0.5196 0.0000 ( 48554 PWs)   bands (ev):

   -15.2893 -15.1896 -15.1798 -14.2794 -14.2779 -14.0859 -13.4620 -13.4517
   -13.2922 -13.2852 -13.2136 -13.2118 -12.3614 -12.3120 -12.3040 -11.9645
   -11.8380 -11.7230 -11.7202 -10.7244 -10.7235 -10.5158 -10.1174 -10.1145
   -10.0312  -9.3745  -9.2859  -9.2801  -8.9141  -8.5375  -8.5366  -8.4624
    -8.3981  -8.3966  -8.3243  -8.3189  -8.1524  -8.1466  -7.7064  -7.4041
    -7.4030  -7.3963  -6.7293  -6.4121  -6.4116  -6.0564  -6.0516  -5.7269
    -5.4149  -5.4134  -5.2836  -5.0906  -5.0819  -5.0259  -4.8913  -4.8810
    -4.8473  -4.6859  -4.6854  -4.6058  -4.6015  -4.5914  -4.5906  -4.3488
    -4.3467  -4.1609  -4.1596  -4.0161  -4.0007  -3.9436  -3.8010  -3.7776
    -3.7753  -3.5373  -3.5352  -3.4073  -3.4036  -3.2930  -3.2834  -3.2731
    -3.1199  -3.0964  -3.0691  -3.0677  -3.0322  -3.0300  -3.0286  -2.3963
    -2.3956  -2.3765  -2.3735  -2.1929  -2.1920  -2.1073  -2.0482  -2.0343
    -1.9170  -1.9145  -1.8019  -1.6193  -0.3785  -0.3348  -0.3316   0.2084
     0.3977   0.4324   1.0214   1.0701   1.0897   1.1289   1.1466   1.2038
     1.2059   1.2511   1.2539   1.2720   1.3817   1.3824   1.6481   2.0242

          k = 0.2833 0.4907 0.0000 ( 48558 PWs)   bands (ev):

   -15.3194 -15.1681 -15.1581 -14.3079 -14.3063 -14.0187 -13.5299 -13.5196
   -13.2738 -13.2668 -13.1601 -13.1584 -12.3806 -12.3146 -12.3064 -11.9749
   -11.8720 -11.6991 -11.6962 -10.7556 -10.7548 -10.4437 -10.1460 -10.1430
   -10.0039  -9.3979  -9.2559  -9.2501  -8.9150  -8.6335  -8.6326  -8.4809
    -8.3675  -8.3660  -8.3158  -8.3104  -8.0545  -8.0487  -7.8061  -7.3757
    -7.3592  -7.3581  -6.8372  -6.3716  -6.3711  -6.1073  -6.1025  -5.6175
    -5.4710  -5.4697  -5.2988  -5.0758  -5.0668  -4.9790  -4.9688  -4.9571
    -4.9314  -4.6665  -4.6659  -4.5494  -4.5456  -4.5391  -4.5387  -4.4179
    -4.4166  -4.1907  -4.1895  -4.0576  -3.9119  -3.8860  -3.8793  -3.7302
    -3.7279  -3.4915  -3.4894  -3.4279  -3.4249  -3.3629  -3.3534  -3.2331
    -3.0997  -3.0768  -3.0703  -3.0686  -3.0035  -2.9740  -2.9726  -2.4241
    -2.4234  -2.4048  -2.4018  -2.1363  -2.1283  -2.1260  -2.0487  -2.0297
    -1.9479  -1.9453  -1.7672  -1.6330  -0.3919  -0.3142  -0.3110   0.1381
     0.4223   0.4608   1.0292   1.0584   1.0700   1.1038   1.1288   1.1457
     1.1580   1.2314   1.2343   1.2599   1.3808   1.3821   1.8115   1.9367

          k = 0.2667 0.4619 0.0000 ( 48580 PWs)   bands (ev):

   -15.3481 -15.1450 -15.1349 -14.3349 -14.3333 -13.9502 -13.5971 -13.5868
   -13.2544 -13.2473 -13.1068 -13.1050 -12.3993 -12.3217 -12.3136 -11.9896
   -11.9041 -11.6732 -11.6703 -10.7855 -10.7846 -10.3710 -10.1804 -10.1774
    -9.9745  -9.4209  -9.2197  -9.2139  -8.9144  -8.7275  -8.7266  -8.5019
    -8.3282  -8.3266  -8.3071  -8.3017  -7.9534  -7.9477  -7.9041  -7.3473
    -7.3177  -7.3165  -6.9433  -6.3367  -6.3361  -6.1549  -6.1501  -5.5346
    -5.5333  -5.5121  -5.3206  -5.0710  -5.0609  -5.0569  -5.0478  -5.0150
    -4.8868  -4.6473  -4.6467  -4.4961  -4.4953  -4.4927  -4.4895  -4.4837
    -4.4834  -4.2196  -4.2184  -4.1180  -3.9686  -3.8125  -3.8076  -3.6778
    -3.6755  -3.4611  -3.4561  -3.4484  -3.4462  -3.4159  -3.4098  -3.1955
    -3.0796  -3.0709  -3.0691  -3.0552  -2.9649  -2.9191  -2.9177  -2.4486
    -2.4479  -2.4320  -2.4289  -2.1524  -2.0936  -2.0627  -2.0535  -2.0135
    -1.9832  -1.9807  -1.7321  -1.6501  -0.4072  -0.2885  -0.2854   0.0672
     0.4437   0.4857   0.9653   1.0374   1.0686   1.0755   1.0855   1.1400
     1.1687   1.1989   1.2017   1.2470   1.3726   1.3743   1.8491   1.8497

          k = 0.2500 0.4330 0.0000 ( 48552 PWs)   bands (ev):

   -15.3749 -15.1201 -15.1099 -14.3602 -14.3586 -13.8807 -13.6638 -13.6535
   -13.2336 -13.2265 -13.0540 -13.0523 -12.4171 -12.3331 -12.3251 -12.0089
   -11.9342 -11.6454 -11.6426 -10.8137 -10.8128 -10.2976 -10.2201 -10.2170
    -9.9426  -9.4430  -9.1770  -9.1712  -8.9118  -8.8184  -8.8176  -8.5252
    -8.2984  -8.2930  -8.2810  -8.2794  -8.0000  -7.8509  -7.8452  -7.3128
    -7.2792  -7.2780  -7.0483  -6.3057  -6.3051  -6.1994  -6.1946  -5.6047
    -5.6034  -5.4078  -5.3441  -5.1651  -5.1551  -5.0999  -5.0344  -5.0252
    -4.8206  -4.6295  -4.6289  -4.5741  -4.5738  -4.4377  -4.4340  -4.4279
    -4.4273  -4.2460  -4.2448  -4.1767  -4.0482  -3.7342  -3.7151  -3.6208
    -3.6185  -3.5131  -3.5038  -3.4687  -3.4672  -3.3850  -3.3826  -3.1564
    -3.0697  -3.0681  -3.0557  -3.0329  -2.9159  -2.8634  -2.8619  -2.4701
    -2.4694  -2.4579  -2.4547  -2.1725  -2.0858  -2.0635  -2.0224  -2.0200
    -2.0020  -1.9676  -1.6998  -1.6690  -0.4245  -0.2586  -0.2555  -0.0038
     0.4614   0.5069   0.8678   1.0169   1.0238   1.0675   1.0706   1.1533
     1.1558   1.1680   1.1945   1.2330   1.3620   1.3640   1.7641   1.7647

          k = 0.2333 0.4041 0.0000 ( 48586 PWs)   bands (ev):

   -15.4003 -15.0936 -15.0834 -14.3839 -14.3823 -13.8102 -13.7300 -13.7197
   -13.2112 -13.2042 -13.0021 -13.0003 -12.4341 -12.3487 -12.3408 -12.0331
   -11.9625 -11.6158 -11.6130 -10.8402 -10.8393 -10.2643 -10.2611 -10.2236
    -9.9089  -9.4651  -9.1306  -9.1248  -8.9121  -8.9067  -8.9017  -8.5509
    -8.2887  -8.2834  -8.2267  -8.2250  -8.0944  -7.7473  -7.7415  -7.2734
    -7.2439  -7.2427  -7.1514  -6.2795  -6.2788  -6.2431  -6.2383  -5.6805
    -5.6793  -5.3683  -5.3087  -5.2587  -5.2492  -5.1844  -5.0096  -5.0003
    -4.7605  -4.6606  -4.6599  -4.6132  -4.6126  -4.3840  -4.3796  -4.3681
    -4.3667  -4.2711  -4.2699  -4.2331  -4.1243  -3.6596  -3.6232  -3.5803
    -3.5708  -3.5596  -3.5574  -3.4885  -3.4877  -3.3370  -3.3347  -3.1244
    -3.0659  -3.0642  -3.0310  -3.0080  -2.8565  -2.8097  -2.8082  -2.4890
    -2.4882  -2.4825  -2.4793  -2.1939  -2.0974  -2.0796  -2.0646  -2.0620
    -1.9445  -1.9067  -1.7093  -1.6531  -0.4439  -0.2254  -0.2222  -0.0748
     0.4752   0.5240   0.7662   0.9728   0.9757   1.0649   1.0885   1.0972
     1.0991   1.2025   1.2179   1.2266   1.3504   1.3526   1.6820   1.6825

          k = 0.2167 0.3753 0.0000 ( 48598 PWs)   bands (ev):

   -15.4239 -15.0652 -15.0550 -14.4060 -14.4045 -13.7954 -13.7851 -13.7391
   -13.1877 -13.1806 -12.9512 -12.9494 -12.4499 -12.3679 -12.3602 -12.0620
   -11.9890 -11.5844 -11.5816 -10.8651 -10.8642 -10.3119 -10.3087 -10.1492
    -9.8729  -9.4849  -9.0793  -9.0736  -8.9929  -8.9918  -8.8979  -8.5794
    -8.2809  -8.2756  -8.1870  -8.1658  -8.1642  -7.6411  -7.6354  -7.2527
    -7.2281  -7.2117  -7.2105  -6.2845  -6.2797  -6.2563  -6.2555  -5.7612
    -5.7600  -5.3909  -5.3559  -5.3457  -5.2699  -5.2067  -4.9820  -4.9726
    -4.7512  -4.7498  -4.7072  -4.5975  -4.5968  -4.3310  -4.3265  -4.3080
    -4.3065  -4.2944  -4.2931  -4.2868  -4.1964  -3.6490  -3.6393  -3.5841
    -3.5342  -3.5063  -3.5059  -3.4948  -3.4926  -3.2873  -3.2852  -3.0938
    -3.0599  -3.0581  -3.0058  -2.9829  -2.7865  -2.7569  -2.7555  -2.5062
    -2.5056  -2.5046  -2.5024  -2.2124  -2.1165  -2.1094  -2.1073  -2.0976
    -1.8901  -1.8413  -1.7429  -1.6160  -0.4657  -0.1898  -0.1866  -0.1456
     0.4849   0.5365   0.6603   0.9311   0.9329   1.0330   1.0351   1.0612
     1.1155   1.2024   1.2418   1.2640   1.3372   1.3395   1.6045   1.6050

          k = 0.2000 0.3464 0.0000 ( 48594 PWs)   bands (ev):

   -15.4456 -15.0352 -15.0250 -14.4266 -14.4250 -13.8602 -13.8499 -13.6671
   -13.1630 -13.1559 -12.9017 -12.8999 -12.4648 -12.3902 -12.3827 -12.0954
   -12.0135 -11.5512 -11.5483 -10.8883 -10.8875 -10.3623 -10.3592 -10.0743
    -9.8346  -9.5030  -9.0749  -9.0738  -9.0238  -9.0181  -8.8846  -8.6105
    -8.2773  -8.2733  -8.2680  -8.0994  -8.0978  -7.5334  -7.5277  -7.3520
    -7.1826  -7.1814  -7.1775  -6.3219  -6.3171  -6.2379  -6.2371  -5.8463
    -5.8451  -5.4520  -5.4420  -5.4124  -5.3562  -5.1104  -4.9525  -4.9431
    -4.8459  -4.8441  -4.6613  -4.5823  -4.5816  -4.3376  -4.3159  -4.3147
    -4.2792  -4.2746  -4.2640  -4.2484  -4.2468  -3.7172  -3.7075  -3.5260
    -3.5257  -3.5060  -3.4464  -3.4271  -3.4249  -3.2373  -3.2352  -3.0655
    -3.0513  -3.0494  -2.9787  -2.9560  -2.7067  -2.7058  -2.7044  -2.5278
    -2.5246  -2.5204  -2.5195  -2.2303  -2.1569  -2.1544  -2.1370  -2.1208
    -1.8391  -1.7831  -1.7742  -1.5766  -0.4898  -0.2160  -0.1527  -0.1495
     0.4900   0.5438   0.5501   0.8948   0.8961   0.9650   0.9669   1.0563
     1.1478   1.1866   1.2851   1.3055   1.3202   1.3223   1.5333   1.5337

          k = 0.1833 0.3175 0.0000 ( 48596 PWs)   bands (ev):

   -15.4659 -15.0035 -14.9933 -14.4455 -14.4439 -13.9240 -13.9137 -13.5949
   -13.1370 -13.1299 -12.8538 -12.8519 -12.4787 -12.4154 -12.4080 -12.1336
   -12.0361 -11.5163 -11.5135 -10.9098 -10.9089 -10.4150 -10.4119  -9.9994
    -9.7941  -9.5198  -9.1519  -9.1509  -8.9663  -8.9607  -8.8672  -8.6444
    -8.3659  -8.2667  -8.2614  -8.0279  -8.0263  -7.4504  -7.4241  -7.4185
    -7.1564  -7.1552  -7.1237  -6.3556  -6.3507  -6.2223  -6.2215  -5.9353
    -5.9340  -5.5484  -5.5385  -5.4430  -5.4331  -5.0178  -4.9443  -4.9421
    -4.9204  -4.9109  -4.6220  -4.5663  -4.5657  -4.3855  -4.3356  -4.3344
    -4.3270  -4.2296  -4.2250  -4.1881  -4.1864  -3.7849  -3.7752  -3.5462
    -3.5455  -3.4293  -3.3668  -3.3571  -3.3549  -3.1874  -3.1854  -3.0402
    -3.0395  -3.0377  -2.9504  -2.9278  -2.6566  -2.6552  -2.6175  -2.5483
    -2.5451  -2.5341  -2.5331  -2.2473  -2.2046  -2.2022  -2.1624  -2.1461
    -1.8276  -1.7916  -1.7063  -1.5357  -0.5164  -0.2859  -0.1150  -0.1118
     0.4360   0.4903   0.5453   0.8637   0.8648   0.8959   0.8977   1.0497
     1.1709   1.1852   1.2966   1.2985   1.3314   1.3508   1.4710   1.4713

          k = 0.1667 0.2887 0.0000 ( 48552 PWs)   bands (ev):

   -15.4842 -14.9703 -14.9601 -14.4626 -14.4610 -13.9868 -13.9765 -13.5215
   -13.1099 -13.1027 -12.8079 -12.8060 -12.4917 -12.4428 -12.4358 -12.1761
   -12.0567 -11.4795 -11.4767 -10.9293 -10.9284 -10.4694 -10.4663  -9.9242
    -9.7513  -9.5354  -9.2252  -9.2243  -8.9057  -8.9002  -8.8446  -8.6812
    -8.4524  -8.2612  -8.2560  -7.9519  -7.9503  -7.5440  -7.3141  -7.3085
    -7.1330  -7.1317  -7.0659  -6.3852  -6.3802  -6.2082  -6.2074  -6.0274
    -6.0262  -5.6407  -5.6310  -5.5268  -5.4521  -5.0464  -5.0437  -4.9332
    -4.8866  -4.8771  -4.5892  -4.5513  -4.5507  -4.4301  -4.3849  -4.3532
    -4.3520  -4.1825  -4.1780  -4.1286  -4.1268  -3.8511  -3.8415  -3.5644
    -3.5633  -3.3504  -3.2928  -3.2857  -3.2835  -3.1380  -3.1360  -3.0257
    -3.0237  -3.0150  -2.9204  -2.8979  -2.6108  -2.6094  -2.5674  -2.5642
    -2.5469  -2.5459  -2.5198  -2.2627  -2.2531  -2.2507  -2.1914  -2.1751
    -1.8762  -1.7478  -1.6380  -1.4934  -0.5457  -0.3551  -0.0774  -0.0743
     0.3179   0.4853   0.5402   0.8196   0.8210   0.8463   0.8475   1.0409
     1.1556   1.2272   1.2649   1.2661   1.3786   1.3963   1.4196   1.4203

          k = 0.1500 0.2598 0.0000 ( 48554 PWs)   bands (ev):

   -15.5008 -14.9354 -14.9251 -14.4784 -14.4768 -14.0486 -14.0383 -13.4476
   -13.0815 -13.0743 -12.7645 -12.7626 -12.5039 -12.4720 -12.4656 -12.2227
   -12.0754 -11.4411 -11.4382 -10.9472 -10.9463 -10.5249 -10.5218  -9.8494
    -9.7066  -9.5494  -9.2935  -9.2926  -8.8438  -8.8385  -8.8176  -8.7209
    -8.5372  -8.2574  -8.2522  -7.8717  -7.8701  -7.6382  -7.2019  -7.1964
    -7.1125  -7.1112  -7.0053  -6.4103  -6.4053  -6.1979  -6.1971  -6.1223
    -6.1210  -5.7330  -5.7235  -5.6127  -5.4692  -5.1511  -5.1481  -4.8541
    -4.8504  -4.8409  -4.5620  -4.5394  -4.5387  -4.4714  -4.4376  -4.3703
    -4.3690  -4.1369  -4.1324  -4.0731  -4.0713  -3.9165  -3.9069  -3.5843
    -3.5829  -3.2715  -3.2215  -3.2139  -3.2117  -3.0894  -3.0874  -3.0085
    -3.0065  -2.9920  -2.8893  -2.8670  -2.5853  -2.5821  -2.5691  -2.5682
    -2.5575  -2.5569  -2.4150  -2.3014  -2.2991  -2.2773  -2.2228  -2.2065
    -1.9295  -1.7078  -1.5697  -1.4497  -0.5778  -0.4235  -0.0407  -0.0377
     0.1965   0.4742   0.5275   0.7516   0.7531   0.8287   0.8297   1.0287
     1.1410   1.2227   1.2248   1.2768   1.3780   1.3793   1.4040   1.4117

          k = 0.1333 0.2309 0.0000 ( 48564 PWs)   bands (ev):

   -15.5157 -14.8988 -14.8885 -14.4925 -14.4910 -14.1093 -14.0990 -13.3736
   -13.0523 -13.0451 -12.7239 -12.7220 -12.5167 -12.5011 -12.4970 -12.2734
   -12.0923 -11.4010 -11.3981 -10.9632 -10.9623 -10.5813 -10.5782  -9.7746
    -9.6597  -9.5625  -9.3562  -9.3553  -8.7874  -8.7822  -8.7770  -8.7624
    -8.6195  -8.2561  -8.2510  -7.7881  -7.7865  -7.7310  -7.0945  -7.0932
    -7.0889  -7.0835  -6.9422  -6.4305  -6.4253  -6.2195  -6.2182  -6.1892
    -6.1883  -5.8233  -5.8139  -5.6979  -5.4844  -5.2565  -5.2532  -4.8126
    -4.8031  -4.7804  -4.5399  -4.5272  -4.5264  -4.5090  -4.4848  -4.3852
    -4.3840  -4.0924  -4.0880  -4.0209  -4.0191  -3.9811  -3.9715  -3.6036
    -3.6018  -3.1927  -3.1578  -3.1428  -3.1406  -3.0420  -3.0400  -2.9885
    -2.9864  -2.9729  -2.8573  -2.8352  -2.6020  -2.5988  -2.5735  -2.5723
    -2.5278  -2.5263  -2.3484  -2.3462  -2.3042  -2.2915  -2.2557  -2.2397
    -1.9884  -1.6717  -1.5017  -1.4046  -0.6127  -0.4911  -0.0053  -0.0024
     0.0721   0.4565   0.5067   0.6837   0.6852   0.8198   0.8208   1.0116
     1.1273   1.1782   1.1794   1.3152   1.3266   1.3364   1.3456   1.3477

          k = 0.1167 0.2021 0.0000 ( 48596 PWs)   bands (ev):

   -15.5288 -14.8606 -14.8503 -14.5050 -14.5035 -14.1690 -14.1587 -13.2990
   -13.0220 -13.0147 -12.6867 -12.6848 -12.5402 -12.5301 -12.5197 -12.3277
   -12.1070 -11.3593 -11.3564 -10.9774 -10.9766 -10.6379 -10.6348  -9.7004
    -9.6107  -9.5738  -9.4128  -9.4119  -8.8107  -8.7493  -8.7226  -8.7175
    -8.6968  -8.2569  -8.2518  -7.8193  -7.7013  -7.6997  -7.0790  -7.0777
    -6.9762  -6.9709  -6.8766  -6.4453  -6.4400  -6.3187  -6.3174  -6.1817
    -6.1808  -5.9107  -5.9015  -5.7818  -5.4982  -5.3653  -5.3617  -4.7730
    -4.7634  -4.7143  -4.5432  -4.5265  -4.5222  -4.5170  -4.5164  -4.3991
    -4.3978  -4.0513  -4.0471  -4.0442  -4.0347  -3.9734  -3.9715  -3.6251
    -3.6230  -3.1133  -3.1002  -3.0735  -3.0713  -2.9959  -2.9939  -2.9656
    -2.9635  -2.9553  -2.8241  -2.8022  -2.6175  -2.6143  -2.5870  -2.5857
    -2.4974  -2.4959  -2.3901  -2.3881  -2.3052  -2.2882  -2.2745  -2.1888
    -2.0520  -1.6397  -1.4341  -1.3581  -0.6505  -0.5577  -0.0541   0.0286
     0.0314   0.4320   0.4777   0.6181   0.6196   0.8181   0.8192   0.9889
     1.1147   1.1334   1.1344   1.2323   1.2676   1.3141   1.3164   1.3859

          k = 0.1000 0.1732 0.0000 ( 48574 PWs)   bands (ev):

   -15.5401 -14.8208 -14.8105 -14.5158 -14.5142 -14.2273 -14.2170 -13.2243
   -12.9906 -12.9833 -12.6535 -12.6515 -12.5728 -12.5641 -12.5292 -12.3853
   -12.1198 -11.3158 -11.3130 -10.9898 -10.9889 -10.6947 -10.6917  -9.6266
    -9.5834  -9.5595  -9.4639  -9.4630  -8.8589  -8.7798  -8.7089  -8.6604
    -8.6551  -8.2602  -8.2552  -7.9065  -7.6116  -7.6101  -7.0658  -7.0644
    -6.8619  -6.8568  -6.8077  -6.4556  -6.4501  -6.4191  -6.4178  -6.1767
    -6.1758  -5.9924  -5.9834  -5.8660  -5.5107  -5.4750  -5.4712  -4.7311
    -4.7216  -4.6544  -4.5732  -4.5625  -4.5081  -4.5074  -4.5068  -4.4103
    -4.4091  -4.1057  -4.0961  -4.0109  -4.0067  -3.9284  -3.9265  -3.6448
    -3.6424  -3.0462  -3.0333  -3.0074  -3.0052  -2.9514  -2.9495  -2.9401
    -2.9392  -2.9376  -2.7889  -2.7671  -2.6322  -2.6290  -2.6017  -2.6003
    -2.4914  -2.4896  -2.4116  -2.4098  -2.3324  -2.3119  -2.3085  -2.1163
    -2.0706  -1.6118  -1.3672  -1.3101  -0.6910  -0.6233  -0.1811   0.0610
     0.0637   0.4015   0.4419   0.5555   0.5570   0.8224   0.8235   0.9615
     1.0923   1.0932   1.1035   1.1653   1.2186   1.2850   1.2873   1.4467

          k = 0.0833 0.1443 0.0000 ( 48548 PWs)   bands (ev):

   -15.5498 -14.7796 -14.7693 -14.5249 -14.5233 -14.2845 -14.2742 -13.1496
   -12.9584 -12.9511 -12.6252 -12.6228 -12.6063 -12.5984 -12.5362 -12.4455
   -12.1307 -11.2709 -11.2680 -11.0001 -10.9993 -10.7513 -10.7482  -9.5903
    -9.5534  -9.5073  -9.5065  -9.5063  -8.9104  -8.8559  -8.6620  -8.6030
    -8.5980  -8.2676  -8.2627  -7.9905  -7.5194  -7.5179  -7.0548  -7.0535
    -6.7473  -6.7439  -6.7345  -6.5205  -6.5192  -6.4586  -6.4529  -6.1718
    -6.1709  -6.0702  -6.0615  -5.9500  -5.5875  -5.5833  -5.5209  -4.6880
    -4.6785  -4.5999  -4.5988  -4.5927  -4.4984  -4.4977  -4.4971  -4.4202
    -4.4189  -4.1657  -4.1561  -3.9710  -3.9668  -3.8902  -3.8883  -3.6695
    -3.6668  -3.0022  -2.9533  -2.9457  -2.9434  -2.9269  -2.9117  -2.9095
    -2.9088  -2.9069  -2.7541  -2.7325  -2.6463  -2.6432  -2.6179  -2.6164
    -2.5207  -2.5185  -2.4013  -2.3994  -2.3682  -2.3490  -2.3164  -2.1831
    -1.9515  -1.5881  -1.3011  -1.2606  -0.7345  -0.6878  -0.3071   0.0924
     0.0949   0.3668   0.4019   0.4964   0.4980   0.8312   0.8324   0.9333
     1.0577   1.0587   1.0936   1.1139   1.1868   1.2556   1.2579   1.5120

          k = 0.0667 0.1155 0.0000 ( 48555 PWs)   bands (ev):

   -15.5576 -14.7368 -14.7265 -14.5323 -14.5308 -14.3404 -14.3301 -13.0752
   -12.9254 -12.9180 -12.6432 -12.6353 -12.5990 -12.5967 -12.5420 -12.5086
   -12.1395 -11.2246 -11.2217 -11.0087 -11.0079 -10.8075 -10.8045  -9.5970
    -9.5430  -9.5421  -9.4815  -9.4507  -8.9649  -8.9303  -8.6120  -8.5480
    -8.5431  -8.2791  -8.2743  -8.0730  -7.4250  -7.4235  -7.0461  -7.0447
    -6.6650  -6.6318  -6.6261  -6.6225  -6.6212  -6.4545  -6.4485  -6.1687
    -6.1678  -6.1427  -6.1343  -6.0335  -5.7018  -5.6975  -5.5290  -4.6429
    -4.6334  -4.6208  -4.6175  -4.5562  -4.4910  -4.4903  -4.4887  -4.4281
    -4.4268  -4.2248  -4.2152  -3.9348  -3.9307  -3.8579  -3.8560  -3.6934
    -3.6905  -2.9657  -2.9145  -2.8896  -2.8874  -2.8808  -2.8797  -2.8723
    -2.8685  -2.8666  -2.7185  -2.6972  -2.6601  -2.6571  -2.6357  -2.6343
    -2.5625  -2.5603  -2.4076  -2.3896  -2.3796  -2.3766  -2.3229  -2.2535
    -1.8346  -1.5686  -1.2361  -1.2097  -0.7807  -0.7511  -0.4294   0.1232
     0.1256   0.3310   0.3614   0.4411   0.4427   0.8422   0.8432   0.9079
     1.0319   1.0332   1.0760   1.0854   1.1669   1.2258   1.2281   1.5807

          k = 0.0500 0.0866 0.0000 ( 48567 PWs)   bands (ev):

   -15.5637 -14.6924 -14.6821 -14.5382 -14.5366 -14.3948 -14.3845 -13.0013
   -12.8917 -12.8842 -12.6787 -12.6710 -12.5837 -12.5773 -12.5701 -12.5464
   -12.1464 -11.1767 -11.1738 -11.0155 -11.0146 -10.8631 -10.8601  -9.6020
    -9.5719  -9.5711  -9.4108  -9.3931  -9.0219  -9.0027  -8.5573  -8.4971
    -8.4923  -8.2945  -8.2898  -8.1525  -7.3287  -7.3272  -7.0394  -7.0381
    -6.7249  -6.7235  -6.5906  -6.5150  -6.5095  -6.4436  -6.4374  -6.2090
    -6.2009  -6.1657  -6.1648  -6.1159  -5.8165  -5.8120  -5.5354  -4.6379
    -4.6365  -4.5962  -4.5866  -4.5235  -4.4863  -4.4856  -4.4825  -4.4340
    -4.4327  -4.2823  -4.2727  -3.9002  -3.8962  -3.8329  -3.8310  -3.7183
    -3.7152  -2.9347  -2.9065  -2.8476  -2.8457  -2.8400  -2.8376  -2.8303
    -2.8286  -2.7939  -2.6835  -2.6761  -2.6707  -2.6627  -2.6538  -2.6518
    -2.6066  -2.6043  -2.4471  -2.4281  -2.3624  -2.3596  -2.3282  -2.3250
    -1.7244  -1.5534  -1.1725  -1.1573  -0.8297  -0.8131  -0.5435   0.1543
     0.1565   0.2978   0.3247   0.3898   0.3914   0.8523   0.8531   0.8878
     1.0168   1.0184   1.0497   1.0788   1.1546   1.1966   1.1988   1.6531

          k = 0.0333 0.0577 0.0000 ( 48513 PWs)   bands (ev):

   -15.5681 -14.6465 -14.6363 -14.5423 -14.5407 -14.4479 -14.4376 -12.9276
   -12.8571 -12.8496 -12.7145 -12.7069 -12.6426 -12.5644 -12.5630 -12.5496
   -12.1511 -11.1275 -11.1246 -11.0201 -11.0193 -10.9179 -10.9149  -9.6058
    -9.5921  -9.5913  -9.3413  -9.3332  -9.0814  -9.0729  -8.4983  -8.4500
    -8.4453  -8.3138  -8.3091  -8.2267  -7.2307  -7.2293  -7.0346  -7.0332
    -6.8273  -6.8259  -6.5144  -6.4242  -6.4174  -6.3983  -6.3934  -6.2671
    -6.2593  -6.1967  -6.1634  -6.1625  -5.9312  -5.9265  -5.5399  -4.6504
    -4.6500  -4.5479  -4.5384  -4.4988  -4.4819  -4.4812  -4.4782  -4.4384
    -4.4370  -4.3383  -4.3287  -3.8663  -3.8625  -3.8150  -3.8131  -3.7450
    -3.7417  -2.9132  -2.9005  -2.8120  -2.8100  -2.7978  -2.7957  -2.7942
    -2.7930  -2.7149  -2.6916  -2.6890  -2.6791  -2.6770  -2.6505  -2.6482
    -2.6418  -2.6208  -2.4854  -2.4665  -2.4014  -2.3466  -2.3458  -2.3320
    -1.6285  -1.5425  -1.1103  -1.1035  -0.8812  -0.8739  -0.6419   0.1863
     0.1884   0.2712   0.2955   0.3426   0.3443   0.8590   0.8595   0.8737
     1.0126   1.0147   1.0326   1.0741   1.1472   1.1698   1.1718   1.7286

          k = 0.0167 0.0289 0.0000 ( 48517 PWs)   bands (ev):

   -15.5708 -14.5993 -14.5891 -14.5449 -14.5432 -14.4993 -14.4891 -12.8548
   -12.8221 -12.8144 -12.7503 -12.7429 -12.7116 -12.5562 -12.5544 -12.5514
   -12.1540 -11.0769 -11.0740 -11.0229 -11.0221 -10.9719 -10.9689  -9.6085
    -9.6049  -9.6040  -9.2736  -9.2714  -9.1434  -9.1411  -8.4357  -8.4080
    -8.4033  -8.3397  -8.3352  -8.2985  -7.1313  -7.1299  -7.0318  -7.0304
    -6.9294  -6.9280  -6.4373  -6.3969  -6.3898  -6.3178  -6.3104  -6.2818
    -6.2771  -6.2767  -6.1622  -6.1613  -6.0476  -6.0428  -5.5426  -4.6580
    -4.6579  -4.4979  -4.4886  -4.4830  -4.4798  -4.4791  -4.4756  -4.4408
    -4.4393  -4.3926  -4.3830  -3.8326  -3.8289  -3.8047  -3.8028  -3.7712
    -3.7677  -2.9029  -2.9016  -2.7744  -2.7723  -2.7629  -2.7618  -2.7603
    -2.7592  -2.7106  -2.7080  -2.7043  -2.7030  -2.6933  -2.6909  -2.6342
    -2.6049  -2.5831  -2.5237  -2.5055  -2.4761  -2.3402  -2.3389  -2.3362
    -1.5596  -1.5360  -1.0500  -1.0482  -0.9352  -0.9333  -0.7123   0.2198
     0.2216   0.2538   0.2768   0.2999   0.3015   0.8618   0.8621   0.8652
     1.0156   1.0176   1.0235   1.0712   1.1430   1.1495   1.1511   1.8068

          k = 0.0000 0.0000 0.0000 ( 48515 PWs)   bands (ev):

   -15.5716 -14.5561 -14.5492 -14.5492 -14.5405 -14.5405 -14.5340 -12.7913
   -12.7886 -12.7802 -12.7802 -12.7774 -12.7774 -12.5540 -12.5516 -12.5516
   -12.1550 -11.0257 -11.0256 -11.0252 -11.0220 -11.0220 -11.0199  -9.6097
    -9.6096  -9.6084  -9.2107  -9.2092  -9.2053  -9.2053  -8.3734  -8.3734
    -8.3674  -8.3667  -8.3659  -8.3659  -7.0318  -7.0306  -7.0305  -7.0298
    -7.0297  -7.0277  -6.3648  -6.3648  -6.3551  -6.3551  -6.3536  -6.3524
    -6.1660  -6.1643  -6.1643  -6.1585  -6.1585  -6.1569  -5.5436  -4.6606
    -4.6606  -4.4797  -4.4796  -4.4786  -4.4751  -4.4514  -4.4453  -4.4453
    -4.4369  -4.4369  -4.4308  -3.8016  -3.8016  -3.8013  -3.7961  -3.7960
[...]
    -9.5578  -9.5438  -9.5430  -9.4698  -8.8699  -8.8693  -8.6641  -8.6639
    -8.4742  -8.4734  -8.0600  -8.0600  -7.6047  -7.3428  -7.3425  -6.8599
    -6.7450  -6.7448  -6.6656  -6.6655  -6.5155  -6.5155  -6.4062  -6.2259
    -6.2249  -5.9595  -5.9594  -5.8247  -5.8246  -5.5194  -5.4671  -4.7349
    -4.5910  -4.5909  -4.5755  -4.5754  -4.5752  -4.5746  -4.4990  -4.4629
    -4.2624  -4.2621  -4.1080  -3.9726  -3.9624  -3.9614  -3.7779  -3.7779
    -3.6163  -3.0118  -2.9775  -2.9771  -2.9420  -2.9312  -2.9094  -2.9091
    -2.8883  -2.8876  -2.8675  -2.7032  -2.7028  -2.5527  -2.5518  -2.5514
    -2.5428  -2.5418  -2.5171  -2.4251  -2.3473  -2.3463  -2.2178  -2.2177
    -1.9756  -1.5910  -1.2934  -1.2928  -0.6998  -0.6993  -0.2834   0.0312
     0.2283   0.2285   0.4883   0.4997   0.5000   0.7705   0.9259   0.9261
     1.0652   1.0665   1.0805   1.0955   1.2260   1.2268   1.2790   1.5321

          k = 0.0000 0.2021 0.0000 ( 48561 PWs)   bands (ev):

   -15.5394 -14.8662 -14.6887 -14.6886 -14.3428 -14.3423 -14.1734 -13.1631
   -13.1628 -12.7689 -12.7668 -12.6939 -12.5728 -12.5714 -12.4294 -12.4294
   -12.1191 -11.3695 -11.1764 -11.1755 -10.8109 -10.8100 -10.6483  -9.5991
    -9.5983  -9.5406  -9.5398  -9.4215  -8.8141  -8.8134  -8.7088  -8.7087
    -8.5089  -8.5081  -8.0083  -8.0083  -7.6923  -7.3960  -7.3957  -6.9732
    -6.7060  -6.7059  -6.7023  -6.7021  -6.5744  -6.5744  -6.3004  -6.1809
    -6.1799  -5.8858  -5.8857  -5.7714  -5.7713  -5.5099  -5.3538  -4.7797
    -4.6077  -4.6070  -4.5928  -4.5927  -4.5659  -4.5659  -4.5088  -4.4569
    -4.2286  -4.2283  -4.0489  -4.0076  -4.0068  -3.9976  -3.7854  -3.7854
    -3.5854  -3.0509  -3.0368  -3.0364  -2.9730  -2.9679  -2.9658  -2.9395
    -2.9117  -2.9111  -2.8859  -2.7139  -2.7135  -2.5424  -2.5404  -2.5196
    -2.5171  -2.5169  -2.5149  -2.4238  -2.3505  -2.3495  -2.1653  -2.1652
    -2.0794  -1.6109  -1.3439  -1.3434  -0.6527  -0.6522  -0.1751  -0.0058
     0.2267   0.2269   0.5256   0.5576   0.5579   0.7411   0.9560   0.9563
     1.0880   1.0889   1.1041   1.1180   1.2540   1.2547   1.3073   1.4784

          k = 0.0000 0.2309 0.0000 ( 48579 PWs)   bands (ev):

   -15.5296 -14.9073 -14.7045 -14.7044 -14.3093 -14.3089 -14.1168 -13.2172
   -13.2169 -12.7645 -12.7624 -12.7338 -12.5784 -12.5770 -12.3849 -12.3849
   -12.1080 -11.4150 -11.1931 -11.1922 -10.7758 -10.7749 -10.5952  -9.6541
    -9.6533  -9.5196  -9.5188  -9.3674  -8.7622  -8.7616  -8.7484  -8.7483
    -8.5467  -8.5459  -7.9563  -7.9563  -7.7769  -7.4495  -7.4492  -7.0875
    -6.7437  -6.7436  -6.6615  -6.6613  -6.6334  -6.6334  -6.1948  -6.1318
    -6.1309  -5.8106  -5.8106  -5.7213  -5.7212  -5.4994  -5.2394  -4.8223
    -4.6445  -4.6438  -4.6095  -4.6094  -4.5373  -4.5373  -4.5210  -4.4507
    -4.1936  -4.1933  -4.0542  -4.0541  -4.0241  -3.9889  -3.7957  -3.7957
    -3.5527  -3.0997  -3.0994  -3.0981  -3.0264  -3.0259  -2.9973  -2.9513
    -2.9344  -2.9339  -2.9029  -2.7269  -2.7265  -2.5445  -2.5378  -2.5358
    -2.4857  -2.4844  -2.4837  -2.3984  -2.3537  -2.3527  -2.1826  -2.1157
    -2.1157  -1.6333  -1.3943  -1.3938  -0.6060  -0.6056  -0.0669  -0.0423
     0.2218   0.2220   0.5621   0.6167   0.6171   0.7119   0.9930   0.9933
     1.1136   1.1171   1.1181   1.1584   1.2868   1.2873   1.3368   1.4265

          k = 0.0000 0.2598 0.0000 ( 48583 PWs)   bands (ev):

   -15.5184 -14.9474 -14.7190 -14.7190 -14.2746 -14.2743 -14.0594 -13.2709
   -13.2706 -12.7770 -12.7596 -12.7574 -12.5846 -12.5832 -12.3425 -12.3425
   -12.0954 -11.4592 -11.2085 -11.2076 -10.7396 -10.7387 -10.5434  -9.7086
    -9.7078  -9.4959  -9.4951  -9.3062  -8.7953  -8.7952  -8.7017  -8.7011
    -8.5874  -8.5867  -7.9034  -7.9033  -7.8585  -7.5030  -7.5027  -7.2007
    -6.7787  -6.7786  -6.6915  -6.6914  -6.6226  -6.6224  -6.0895  -6.0787
    -6.0778  -5.7335  -5.7335  -5.6728  -5.6727  -5.4877  -5.1275  -4.8628
    -4.6865  -4.6858  -4.6249  -4.6248  -4.5360  -4.5051  -4.5050  -4.4418
    -4.1569  -4.1566  -4.1048  -4.1048  -4.0487  -3.9288  -3.8097  -3.8096
    -3.5212  -3.1656  -3.1653  -3.1475  -3.0837  -3.0834  -3.0221  -2.9647
    -2.9565  -2.9559  -2.9187  -2.7413  -2.7409  -2.5845  -2.5340  -2.5320
    -2.4531  -2.4525  -2.4508  -2.3654  -2.3547  -2.3538  -2.2839  -2.0690
    -2.0690  -1.6581  -1.4446  -1.4441  -0.5600  -0.5595  -0.0780   0.0397
     0.2129   0.2131   0.5975   0.6749   0.6753   0.6838   1.0352   1.0355
     1.1245   1.1542   1.1546   1.1982   1.3257   1.3259   1.3679   1.3773

          k = 0.0000 0.2887 0.0000 ( 48601 PWs)   bands (ev):

   -15.5060 -14.9865 -14.7322 -14.7322 -14.2389 -14.2385 -14.0014 -13.3241
   -13.3239 -12.8238 -12.7543 -12.7520 -12.5914 -12.5901 -12.3026 -12.3026
   -12.0814 -11.5023 -11.2225 -11.2216 -10.7022 -10.7014 -10.4928  -9.7628
    -9.7620  -9.4700  -9.4692  -9.2411  -8.8349  -8.8348  -8.6482  -8.6475
    -8.6288  -8.6282  -7.9360  -7.8509  -7.8508  -7.5567  -7.5564  -7.3141
    -6.8111  -6.8110  -6.7498  -6.7497  -6.5861  -6.5859  -6.0223  -6.0215
    -5.9850  -5.6554  -5.6553  -5.6256  -5.6253  -5.4752  -5.0167  -4.9031
    -4.7320  -4.7313  -4.6387  -4.6386  -4.5542  -4.4694  -4.4693  -4.4335
    -4.1591  -4.1590  -4.1184  -4.1182  -4.0749  -3.8675  -3.8230  -3.8229
    -3.4911  -3.2339  -3.2336  -3.2028  -3.1404  -3.1402  -3.0442  -2.9806
    -2.9777  -2.9773  -2.9332  -2.7564  -2.7559  -2.6317  -2.5293  -2.5273
    -2.4261  -2.4257  -2.4153  -2.3824  -2.3503  -2.3496  -2.3310  -2.0243
    -2.0243  -1.6851  -1.4947  -1.4942  -0.5144  -0.5140  -0.1127   0.1434
     0.1997   0.2000   0.6305   0.6582   0.7301   0.7307   1.0793   1.0796
     1.1361   1.2006   1.2009   1.2329   1.3311   1.3330   1.3729   1.3730

          k = 0.0000 0.3175 0.0000 ( 48613 PWs)   bands (ev):

   -15.4922 -15.0243 -14.7443 -14.7442 -14.2021 -14.2018 -13.9425 -13.3772
   -13.3769 -12.8734 -12.7483 -12.7460 -12.5986 -12.5974 -12.2653 -12.2653
   -12.0658 -11.5440 -11.2352 -11.2343 -10.6639 -10.6631 -10.4440  -9.8166
    -9.8158  -9.4422  -9.4414  -9.1704  -8.8720  -8.8719  -8.6759  -8.6752
    -8.5901  -8.5896  -8.0092  -7.7984  -7.7984  -7.6106  -7.6102  -7.4246
    -6.8399  -6.8397  -6.8078  -6.8075  -6.5520  -6.5518  -5.9615  -5.9607
    -5.8815  -5.5831  -5.5821  -5.5758  -5.5747  -5.4611  -4.9420  -4.9054
    -4.7811  -4.7804  -4.6515  -4.6515  -4.5758  -4.4304  -4.4301  -4.4249
    -4.2169  -4.2169  -4.0993  -4.0794  -4.0792  -3.8388  -3.8388  -3.8050
    -3.4618  -3.3040  -3.3037  -3.2610  -3.1979  -3.1977  -3.0634  -2.9984
    -2.9977  -2.9965  -2.9463  -2.7715  -2.7710  -2.6819  -2.5235  -2.5214
    -2.4769  -2.4099  -2.4099  -2.3790  -2.3349  -2.3347  -2.2975  -1.9828
    -1.9828  -1.7141  -1.5446  -1.5441  -0.4694  -0.4690  -0.1459   0.1824
     0.1827   0.2429   0.6304   0.6661   0.7808   0.7814   1.1218   1.1218
     1.1484   1.2512   1.2520   1.2598   1.2967   1.2978   1.4286   1.4287

          k = 0.0000 0.3464 0.0000 ( 48605 PWs)   bands (ev):

   -15.4769 -15.0609 -14.7550 -14.7549 -14.1642 -14.1639 -13.8834 -13.4296
   -13.4294 -12.9255 -12.7418 -12.7395 -12.6063 -12.6051 -12.2308 -12.2307
   -12.0489 -11.5844 -11.2466 -11.2457 -10.6245 -10.6236 -10.3974  -9.8698
    -9.8689  -9.4116  -9.4108  -9.0959  -8.9060  -8.9060  -8.7219  -8.7212
    -8.5350  -8.5345  -8.0775  -7.7458  -7.7458  -7.6645  -7.6641  -7.5376
    -6.8692  -6.8681  -6.8623  -6.8612  -6.5208  -6.5206  -5.8988  -5.8980
    -5.7795  -5.5404  -5.5402  -5.4964  -5.4961  -5.4445  -4.9786  -4.8349
    -4.8342  -4.7961  -4.6624  -4.6624  -4.6017  -4.4134  -4.3875  -4.3875
    -4.2766  -4.2766  -4.1236  -4.0395  -4.0393  -3.8530  -3.8529  -3.7427
    -3.4313  -3.3753  -3.3750  -3.3259  -3.2541  -3.2540  -3.0792  -3.0177
    -3.0171  -3.0138  -2.9581  -2.7860  -2.7855  -2.7356  -2.5667  -2.5174
    -2.5153  -2.4055  -2.4052  -2.3421  -2.3072  -2.3070  -2.2655  -1.9435
    -1.9434  -1.7449  -1.5941  -1.5936  -0.4250  -0.4246  -0.1774   0.1614
     0.1617   0.3370   0.6085   0.6959   0.8257   0.8265   1.1600   1.1604
     1.1614   1.2397   1.2419   1.2777   1.3402   1.3404   1.4941   1.4944

          k = 0.0000 0.3753 0.0000 ( 48609 PWs)   bands (ev):

   -15.4605 -15.0963 -14.7643 -14.7643 -14.1255 -14.1252 -13.8233 -13.4815
   -13.4812 -12.9798 -12.7351 -12.7327 -12.6144 -12.6133 -12.1995 -12.1994
   -12.0305 -11.6237 -11.2567 -11.2558 -10.5839 -10.5830 -10.3538  -9.9225
    -9.9217  -9.3790  -9.3782  -9.0177  -8.9371  -8.9369  -8.7690  -8.7683
    -8.4800  -8.4794  -8.1405  -7.7184  -7.7180  -7.6927  -7.6927  -7.6479
    -6.9246  -6.9244  -6.8867  -6.8865  -6.4926  -6.4924  -5.8339  -5.8331
    -5.6800  -5.5017  -5.5016  -5.4280  -5.4152  -5.4150  -5.0134  -4.8906
    -4.8899  -4.6868  -4.6719  -4.6719  -4.6321  -4.4020  -4.3426  -4.3425
    -4.3417  -4.3417  -4.1469  -3.9986  -3.9984  -3.8668  -3.8668  -3.6793
    -3.4473  -3.4470  -3.4021  -3.3942  -3.3091  -3.3089  -3.0916  -3.0358
    -3.0352  -3.0327  -2.9685  -2.7995  -2.7990  -2.7918  -2.6509  -2.5115
    -2.5092  -2.4080  -2.4076  -2.3046  -2.2728  -2.2725  -2.2357  -1.9083
    -1.9083  -1.7773  -1.6432  -1.6427  -0.3813  -0.3809  -0.2066   0.1370
     0.1374   0.4246   0.5885   0.7237   0.8647   0.8656   1.1745   1.1919
     1.1923   1.2084   1.2104   1.2884   1.4213   1.4214   1.5671   1.5676

          k = 0.0000 0.4041 0.0000 ( 48599 PWs)   bands (ev):

   -15.4429 -15.1306 -14.7725 -14.7725 -14.0855 -14.0852 -13.7628 -13.5326
   -13.5324 -13.0359 -12.7280 -12.7254 -12.6227 -12.6217 -12.1717 -12.1716
   -12.0107 -11.6615 -11.2653 -11.2644 -10.5423 -10.5415 -10.3139  -9.9746
    -9.9738  -9.3442  -9.3434  -8.9655  -8.9641  -8.9347  -8.8166  -8.8160
    -8.4249  -8.4243  -8.1973  -7.7724  -7.7720  -7.7565  -7.6394  -7.6394
    -6.9809  -6.9808  -6.9061  -6.9060  -6.4675  -6.4673  -5.7677  -5.7669
    -5.5835  -5.4668  -5.4668  -5.4096  -5.3340  -5.3339  -5.0460  -4.9492
    -4.9485  -4.6804  -4.6803  -4.6677  -4.5801  -4.4082  -4.4081  -4.3898
    -4.2928  -4.2928  -4.1715  -3.9566  -3.9563  -3.8824  -3.8823  -3.6154
    -3.5194  -3.5192  -3.4674  -3.3731  -3.3639  -3.3637  -3.0999  -3.0541
    -3.0521  -3.0517  -2.9775  -2.8503  -2.8117  -2.8112  -2.7288  -2.5054
    -2.5030  -2.4124  -2.4120  -2.2666  -2.2348  -2.2345  -2.2086  -1.8758
    -1.8758  -1.8112  -1.6915  -1.6911  -0.3381  -0.3377  -0.2333   0.1098
     0.1101   0.5045   0.5709   0.7484   0.8978   0.8988   1.1719   1.1739
     1.1879   1.2285   1.2293   1.2935   1.5123   1.5123   1.6055   1.6064

          k = 0.0000 0.4330 0.0000 ( 48595 PWs)   bands (ev):

   -15.4239 -15.1636 -14.7794 -14.7794 -14.0444 -14.0441 -13.7019 -13.5831
   -13.5828 -13.0935 -12.7205 -12.7178 -12.6312 -12.6304 -12.1476 -12.1476
   -11.9893 -11.6981 -11.2726 -11.2718 -10.4998 -10.4990 -10.2783 -10.0262
   -10.0253  -9.3078  -9.3070  -8.9884  -8.9880  -8.8644  -8.8637  -8.8503
    -8.3700  -8.3695  -8.2473  -7.8652  -7.8264  -7.8260  -7.5861  -7.5861
    -7.0378  -7.0377  -6.9225  -6.9224  -6.4459  -6.4457  -5.6983  -5.6975
    -5.4919  -5.4369  -5.4369  -5.3909  -5.2530  -5.2529  -5.0740  -5.0106
    -5.0099  -4.7087  -4.6875  -4.6874  -4.4770  -4.4769  -4.4759  -4.3780
    -4.2409  -4.2408  -4.1940  -3.9135  -3.9133  -3.8958  -3.8957  -3.5912
    -3.5910  -3.5513  -3.5437  -3.4178  -3.4176  -3.3435  -3.1039  -3.0752
    -3.0668  -3.0664  -2.9851  -2.9106  -2.8222  -2.8218  -2.7998  -2.4983
    -2.4958  -2.4178  -2.4176  -2.2283  -2.1949  -2.1947  -2.1846  -1.8489
    -1.8488  -1.8462  -1.7387  -1.7383  -0.2956  -0.2953  -0.2568   0.0801
     0.0805   0.5558   0.5761   0.7692   0.9252   0.9263   1.1444   1.1464
     1.2013   1.2584   1.2596   1.2945   1.5711   1.5721   1.6200   1.6201

          k = 0.0000 0.4619 0.0000 ( 48575 PWs)   bands (ev):

   -15.4036 -15.1950 -14.7851 -14.7851 -14.0023 -14.0020 -13.6407 -13.6330
   -13.6327 -13.1523 -12.7127 -12.7098 -12.6398 -12.6392 -12.1276 -12.1275
   -11.9665 -11.7335 -11.2787 -11.2778 -10.4563 -10.4554 -10.2476 -10.0769
   -10.0761  -9.2692  -9.2684  -9.0085  -9.0082  -8.9122  -8.9116  -8.7628
    -8.3152  -8.3147  -8.2895  -7.9715  -7.8805  -7.8801  -7.5329  -7.5328
    -7.0940  -7.0939  -6.9361  -6.9361  -6.4280  -6.4278  -5.6279  -5.6271
    -5.4120  -5.4117  -5.4076  -5.3714  -5.1707  -5.1706  -5.0951  -5.0735
    -5.0729  -4.7553  -4.6934  -4.6933  -4.5472  -4.5471  -4.3710  -4.3643
    -4.2171  -4.1862  -4.1861  -3.9077  -3.9076  -3.8693  -3.8691  -3.6620
    -3.6618  -3.6240  -3.4873  -3.4711  -3.4709  -3.3118  -3.1030  -3.0994
    -3.0794  -3.0789  -2.9914  -2.9724  -2.8635  -2.8311  -2.8305  -2.4908
    -2.4880  -2.4243  -2.4242  -2.1896  -2.1649  -2.1537  -2.1529  -1.8823
    -1.8324  -1.8320  -1.7812  -1.7811  -0.2770  -0.2538  -0.2533   0.0483
     0.0487   0.5435   0.6380   0.7853   0.9474   0.9486   1.1208   1.1229
     1.2146   1.2875   1.2892   1.2924   1.5431   1.5444   1.7231   1.7232

          k = 0.0000 0.4907 0.0000 ( 48569 PWs)   bands (ev):

   -15.3821 -15.2255 -14.7896 -14.7896 -13.9593 -13.9591 -13.6819 -13.6817
   -13.5792 -13.2118 -12.7049 -12.7015 -12.6484 -12.6482 -12.1118 -12.1118
   -11.9422 -11.7674 -11.2835 -11.2826 -10.4118 -10.4110 -10.2229 -10.1270
   -10.1261  -9.2287  -9.2279  -9.0245  -9.0242  -8.9600  -8.9595  -8.6712
    -8.3235  -8.2605  -8.2600  -8.0767  -7.9346  -7.9342  -7.4787  -7.4787
    -7.1500  -7.1500  -6.9467  -6.9466  -6.4139  -6.4137  -5.5585  -5.5576
    -5.3924  -5.3924  -5.3517  -5.3379  -5.1393  -5.1386  -5.1050  -5.0884
    -5.0884  -4.8072  -4.6978  -4.6977  -4.6200  -4.6199  -4.3465  -4.2696
    -4.2375  -4.1287  -4.1286  -3.9181  -3.9180  -3.8269  -3.8268  -3.7293
    -3.7292  -3.7092  -3.5234  -3.5232  -3.4223  -3.2831  -3.1230  -3.0970
    -3.0894  -3.0889  -3.0339  -2.9963  -2.9195  -2.8380  -2.8375  -2.4841
    -2.4809  -2.4321  -2.4317  -2.1507  -2.1485  -2.1114  -2.1107  -1.9193
    -1.8472  -1.8465  -1.7964  -1.7962  -0.2930  -0.2128  -0.2124   0.0148
     0.0152   0.5339   0.6900   0.7959   0.9644   0.9656   1.1022   1.1043
     1.2274   1.2874   1.3163   1.3184   1.5110   1.5126   1.8353   1.8353

          k = 0.0000 0.5196 0.0000 ( 48597 PWs)   bands (ev):

   -15.3593 -15.2546 -14.7928 -14.7928 -13.9154 -13.9151 -13.7303 -13.7300
   -13.5175 -13.2723 -12.6971 -12.6930 -12.6574 -12.6568 -12.1004 -12.1003
   -11.9168 -11.8001 -11.2867 -11.2858 -10.3665 -10.3657 -10.2047 -10.1765
   -10.1755  -9.1875  -9.1866  -9.0364  -9.0361  -9.0069  -9.0064  -8.5774
    -8.3483  -8.2060  -8.2055  -8.1801  -7.9888  -7.9883  -7.4245  -7.4245
    -7.2060  -7.2059  -6.9542  -6.9541  -6.4036  -6.4034  -5.4885  -5.4876
    -5.3774  -5.3774  -5.3311  -5.2952  -5.2082  -5.2076  -5.0907  -5.0082
    -5.0081  -4.8645  -4.7011  -4.7011  -4.6949  -4.6948  -4.3315  -4.2583
    -4.1705  -4.0689  -4.0687  -3.9255  -3.9253  -3.8186  -3.8185  -3.7956
    -3.7605  -3.7604  -3.5754  -3.5752  -3.3574  -3.2551  -3.1473  -3.0990
    -3.0968  -3.0963  -3.0832  -2.9998  -2.9676  -2.8430  -2.8424  -2.4771
    -2.4731  -2.4407  -2.4395  -2.1367  -2.1117  -2.0681  -2.0675  -1.9570
    -1.8891  -1.8885  -1.7883  -1.7881  -0.3048  -0.1725  -0.1722  -0.0202
    -0.0198   0.5270   0.7315   0.7998   0.9765   0.9777   1.0888   1.0909
     1.2397   1.2805   1.3445   1.3475   1.4790   1.4815   1.9526   1.9526

          k = 0.0000 0.5485 0.0000 ( 48596 PWs)   bands (ev):

   -15.3356 -15.2823 -14.7946 -14.7946 -13.8705 -13.8702 -13.7778 -13.7776
   -13.4562 -13.3331 -12.6901 -12.6843 -12.6664 -12.6641 -12.0935 -12.0934
   -11.8897 -11.8313 -11.2888 -11.2879 -10.3202 -10.3194 -10.2252 -10.2245
   -10.1932  -9.1447  -9.1436  -9.0540  -9.0537  -9.0422  -9.0419  -8.4809
    -8.3636  -8.2812  -8.1516  -8.1511  -8.0429  -8.0425  -7.3702  -7.3702
    -7.2612  -7.2612  -6.9590  -6.9589  -6.3975  -6.3973  -5.4174  -5.4164
    -5.3687  -5.3687  -5.3118  -5.2844  -5.2768  -5.2763  -5.0478  -4.9279
    -4.9278  -4.9256  -4.7719  -4.7718  -4.7028  -4.7027  -4.3152  -4.2775
    -4.0719  -4.0067  -4.0066  -3.9295  -3.9289  -3.8847  -3.8778  -3.8776
    -3.7217  -3.7215  -3.6256  -3.6255  -3.2939  -3.2279  -3.1759  -3.1626
    -3.1013  -3.1009  -3.0658  -3.0079  -3.0019  -2.8460  -2.8455  -2.4704
    -2.4645  -2.4485  -2.4454  -2.1295  -2.0727  -2.0241  -2.0235  -1.9951
    -1.9342  -1.9335  -1.7823  -1.7822  -0.3120  -0.1332  -0.1330  -0.0565
    -0.0559   0.5228   0.7628   0.7963   0.9837   0.9850   1.0806   1.0827
     1.2512   1.2721   1.3710   1.3760   1.4488   1.4533   2.0742   2.0744

          k = 0.0000 0.5774 0.0000 ( 48666 PWs)   bands (ev):

   -15.3148 -15.3044 -14.7954 -14.7954 -13.8255 -13.8252 -13.8238 -13.8236
   -13.3981 -13.3912 -12.6867 -12.6762 -12.6748 -12.6678 -12.0913 -12.0913
   -11.8627 -11.8599 -11.2897 -11.2888 -10.2748 -10.2739 -10.2716 -10.2709
   -10.1895  -9.1067  -9.1026  -9.0964  -9.0937  -9.0462  -9.0458  -8.3869
    -8.3811  -8.3649  -8.0985  -8.0976  -8.0961  -8.0960  -7.3164  -7.3164
    -7.3157  -7.3156  -6.9614  -6.9614  -6.3956  -6.3954  -5.3673  -5.3670
    -5.3537  -5.3481  -5.3447  -5.3407  -5.2984  -5.2902  -4.9895  -4.9879
    -4.8500  -4.8499  -4.8496  -4.8495  -4.7038  -4.7038  -4.3024  -4.2919
    -3.9835  -3.9740  -3.9440  -3.9438  -3.9417  -3.9411  -3.9329  -3.9313
    -3.6756  -3.6752  -3.6741  -3.6741  -3.2396  -3.2166  -3.2073  -3.1975
    -3.1028  -3.1024  -3.0408  -3.0403  -3.0026  -2.8470  -2.8465  -2.4679
    -2.4578  -2.4560  -2.4487  -2.1271  -2.0345  -2.0332  -1.9801  -1.9800
    -1.9786  -1.9774  -1.7805  -1.7804  -0.3144  -0.1000  -0.0991  -0.0895
    -0.0879   0.5214   0.7839   0.7843   0.9860   0.9873   1.0778   1.0799
     1.2604   1.2640   1.3855   1.3942   1.4297   1.4378   2.1077   2.1083

     Writing output data file Ge+SiC_I__4.5.save/

     init_run     :      1.99s CPU      3.33s WALL (       1 calls)
     electrons    :  31761.19s CPU  32280.23s WALL (       1 calls)

     Called by init_run:
     wfcinit      :      0.00s CPU      0.07s WALL (       1 calls)
     wfcinit:atom :     23.98s CPU     50.55s WALL (      61 calls)
     wfcinit:wfcr :  11545.95s CPU  11711.17s WALL (      61 calls)
     potinit      :      0.62s CPU      0.95s WALL (       1 calls)
     hinit0       :      1.20s CPU      1.93s WALL (       1 calls)

     Called by electrons:
     c_bands      :  31761.18s CPU  32280.11s WALL (       1 calls)
     v_of_rho     :      0.55s CPU      0.57s WALL (       1 calls)
     v_h          :      0.04s CPU      0.04s WALL (       1 calls)
     v_xc         :      0.52s CPU      0.53s WALL (       1 calls)

     Called by c_bands:
     init_us_2    :     12.09s CPU     13.23s WALL (      61 calls)
     cegterg      :  19955.41s CPU  20267.01s WALL (     162 calls)

     Called by sum_band:

     Called by *egterg:
     h_psi        :  19131.78s CPU  19325.94s WALL (    2872 calls)
     g_psi        :     31.67s CPU     32.13s WALL (    2649 calls)
     cdiaghg      :    492.66s CPU    505.01s WALL (    2710 calls)
     cegterg:over :   3265.62s CPU   3276.54s WALL (    2649 calls)
     cegterg:upda :   2164.27s CPU   2219.54s WALL (    2649 calls)
     cegterg:last :   1074.29s CPU   1189.51s WALL (     284 calls)

     Called by h_psi:
     h_psi:pot    :  19092.64s CPU  19203.47s WALL (    2872 calls)
     h_psi:calbec :   5712.52s CPU   5787.00s WALL (    2872 calls)
     vloc_psi     :   8320.59s CPU   8337.64s WALL (    2872 calls)
     add_vuspsi   :   5059.47s CPU   5076.20s WALL (    2872 calls)

     General routines
     calbec       :   5712.48s CPU   5785.59s WALL (    2872 calls)
     fft          :      0.26s CPU      0.73s WALL (      11 calls)
     fftw         :   7063.10s CPU   7073.79s WALL (  290768 calls)
     davcio       :      0.39s CPU     55.63s WALL (     122 calls)

     Parallel routines

     PWSCF        :     8h49m CPU       49h 8m WALL

      59h

   This run was terminated on:   1:17: 1  20Apr2020            

=------------------------------------------------------------------------------=
   JOB DONE.
=------------------------------------------------------------------------------=
