
     Program PWSCF v.6.3 starts on 18Apr2020 at  8: 0:20 

     This program is part of the open-source Quantum ESPRESSO suite
     for quantum simulation of materials; please cite
         "P. Giannozzi et al., J. Phys.:Condens. Matter 21 395502 (2009);
         "P. Giannozzi et al., J. Phys.:Condens. Matter 29 465901 (2017);
          URL http://www.quantum-espresso.org", 
     in publications or presentations arising from this work. More details at
     http://www.quantum-espresso.org/quote

     Parallel version (MPI), running on     1 processors

     MPI processes distributed on     1 nodes
     Reading input from /home/nano3/Desktop/RAYID/Ge+SiC/Ge+SiC_I/Ge+SiC_I__3.0.band_nscf.in

     Current dimensions of program PWSCF are:
     Max number of different atomic species (ntypx) = 10
     Max number of k-points (npk) =  40000
     Max angular momentum in pseudopotentials (lmaxx) =  3

     Atomic positions and unit cell read from directory:
     /home/nano3/Desktop/RAYID/Ge+SiC/Ge+SiC_I/work/Ge+SiC_I__3.0.save/


     IMPORTANT: XC functional enforced from input :
     Exchange-correlation      = PBE ( 1  4  3  4 0 0)
     Any further DFT definition will be discarded
     Please, verify this is what you really want

               file Ge.pbe-mt_fhi.UPF: wavefunction(s)  4d 4f renormalized
               file C.pbe-mt_fhi.UPF: wavefunction(s)  4f renormalized
               file Si.pbe-mt_fhi.UPF: wavefunction(s)  4f renormalized

     -------------------------------------------------
     Parameters for Dispersion (Grimme-D2) Correction:
     -------------------------------------------------
       atom      VdW radius       C_6     

        Ge         3.264        593.221
        C          2.744         60.710
        Si         3.243        320.200

     Subspace diagonalization in iterative solution of the eigenvalue problem:
     a serial algorithm will be used


     G-vector sticks info
     --------------------
     sticks:   dense  smooth     PW     G-vecs:    dense   smooth      PW
     Sum        4429    4429   1177               388955   388955   53541



     bravais-lattice index     =            4
     lattice parameter (alat)  =      23.1302  a.u.
     unit-cell volume          =   17511.3678 (a.u.)^3
     number of atoms/cell      =           50
     number of atomic types    =            3
     number of electrons       =       200.00
     number of Kohn-Sham states=          120
     kinetic-energy cutoff     =      30.0000  Ry
     charge density cutoff     =     120.0000  Ry
     Exchange-correlation      = PBE ( 1  4  3  4 0 0)

     celldm(1)=  23.130248  celldm(2)=   0.000000  celldm(3)=   1.633987
     celldm(4)=   0.000000  celldm(5)=   0.000000  celldm(6)=   0.000000

     crystal axes: (cart. coord. in units of alat)
               a(1) = (   1.000000   0.000000   0.000000 )  
               a(2) = (  -0.500000   0.866025   0.000000 )  
               a(3) = (   0.000000   0.000000   1.633987 )  

     reciprocal axes: (cart. coord. in units 2 pi/alat)
               b(1) = (  1.000000  0.577350 -0.000000 )  
               b(2) = (  0.000000  1.154701  0.000000 )  
               b(3) = (  0.000000 -0.000000  0.612000 )  


     PseudoPot. # 1 for Ge read from file:
     /home/nano3/Desktop/RAYID/qe-6.3/bin/pseudo/Ge.pbe-mt_fhi.UPF
     MD5 check sum: b08ff19c3d362044f6e29226b459d86a
     Pseudo is Norm-conserving, Zval =  4.0
     Generated using FHI98PP, converted with fhi2upf.x v.5.0.2
     Using radial grid of  529 points,  3 beta functions with: 
                l(1) =   1
                l(2) =   2
                l(3) =   3

     PseudoPot. # 2 for C  read from file:
     /home/nano3/Desktop/RAYID/qe-6.3/bin/pseudo/C.pbe-mt_fhi.UPF
     MD5 check sum: 058ca341f9d6d5327d9962fd88a91b65
     Pseudo is Norm-conserving, Zval =  4.0
     Generated using FHI98PP, converted with fhi2upf.x v.5.0.2
     Using radial grid of  461 points,  3 beta functions with: 
                l(1) =   0
                l(2) =   1
                l(3) =   3

     PseudoPot. # 3 for Si read from file:
     /home/nano3/Desktop/RAYID/qe-6.3/bin/pseudo/Si.pbe-mt_fhi.UPF
     MD5 check sum: 259057c2adf9952f9ced37ae3d9e311d
     Pseudo is Norm-conserving, Zval =  4.0
     Generated using FHI98PP, converted with fhi2upf.x v.5.0.2
     Using radial grid of  495 points,  3 beta functions with: 
                l(1) =   0
                l(2) =   1
                l(3) =   3

     atomic species   valence    mass     pseudopotential
        Ge             4.00    72.59000     Ge( 1.00)
        C              4.00    12.01070     C ( 1.00)
        Si             4.00    28.08550     Si( 1.00)

      6 Sym. Ops. (no inversion) found


                                    s                        frac. trans.

      isym =  1     identity                                     

 cryst.   s( 1) = (     1          0          0      )
                  (     0          1          0      )
                  (     0          0          1      )

 cart.    s( 1) = (  1.0000000 -0.0000000  0.0000000 )
                  (  0.0000000  1.0000000  0.0000000 )
                  (  0.0000000  0.0000000  1.0000000 )


      isym =  2     120 deg rotation - cryst. axis [0,0,1]       

 cryst.   s( 2) = (     0          1          0      )
                  (    -1         -1          0      )
                  (     0          0          1      )

 cart.    s( 2) = ( -0.5000000 -0.8660254  0.0000000 )
                  (  0.8660254 -0.5000000  0.0000000 )
                  (  0.0000000  0.0000000  1.0000000 )


      isym =  3     120 deg rotation - cryst. axis [0,0,-1]      

 cryst.   s( 3) = (    -1         -1          0      )
                  (     1          0          0      )
                  (     0          0          1      )

 cart.    s( 3) = ( -0.5000000  0.8660254  0.0000000 )
                  ( -0.8660254 -0.5000000  0.0000000 )
                  (  0.0000000  0.0000000  1.0000000 )


      isym =  4     inv. 180 deg rotation - cart. axis [1,0,0]   

 cryst.   s( 4) = (    -1          0          0      )
                  (     1          1          0      )
                  (     0          0          1      )

 cart.    s( 4) = ( -1.0000000 -0.0000000  0.0000000 )
                  (  0.0000000  1.0000000  0.0000000 )
                  (  0.0000000  0.0000000  1.0000000 )


      isym =  5     inv. 180 deg rotation - cryst. axis [0,1,0]  

 cryst.   s( 5) = (     1          1          0      )
                  (     0         -1          0      )
                  (     0          0          1      )

 cart.    s( 5) = (  0.5000000  0.8660254  0.0000000 )
                  (  0.8660254 -0.5000000  0.0000000 )
                  (  0.0000000  0.0000000  1.0000000 )


      isym =  6     inv. 180 deg rotation - cryst. axis [1,1,0]  

 cryst.   s( 6) = (     0         -1          0      )
                  (    -1          0          0      )
                  (     0          0          1      )

 cart.    s( 6) = (  0.5000000 -0.8660254  0.0000000 )
                  ( -0.8660254 -0.5000000  0.0000000 )
                  (  0.0000000  0.0000000  1.0000000 )


     point group C_3v (3m)  
     there are  3 classes
     the character table:

       E     2C3   3s_v 
A_1    1.00  1.00  1.00
A_2    1.00  1.00 -1.00
E      2.00 -1.00  0.00

     the symmetry operations in each class and the name of the first element:

     E        1
          identity                                               
     2C3      2    3
          120 deg rotation - cryst. axis [0,0,1]                 
     3s_v     4    5    6
          inv. 180 deg rotation - cart. axis [1,0,0]             

   Cartesian axes

     site n.     atom                  positions (alat units)
         1           Ge  tau(   1) = (   0.0000000   0.0000000   0.2450980  )
         2           Ge  tau(   2) = (   0.0000000   0.1924510   0.3000000  )
         3           Ge  tau(   3) = (  -0.1666667   0.2886751   0.2450980  )
         4           Ge  tau(   4) = (  -0.1666667   0.4811261   0.3000000  )
         5           Ge  tau(   5) = (  -0.3333333   0.5773503   0.2450980  )
         6           Ge  tau(   6) = (  -0.3333333   0.7698012   0.3000000  )
         7           Ge  tau(   7) = (   0.3333333   0.0000000   0.2450980  )
         8           Ge  tau(   8) = (   0.3333333   0.1924510   0.3000000  )
         9           Ge  tau(   9) = (   0.1666667   0.2886751   0.2450980  )
        10           Ge  tau(  10) = (   0.1666667   0.4811261   0.3000000  )
        11           Ge  tau(  11) = (   0.0000000   0.5773503   0.2450980  )
        12           Ge  tau(  12) = (   0.0000000   0.7698012   0.3000000  )
        13           Ge  tau(  13) = (   0.6666667   0.0000000   0.2450980  )
        14           Ge  tau(  14) = (   0.6666667   0.1924510   0.3000000  )
        15           Ge  tau(  15) = (   0.5000000   0.2886751   0.2450980  )
        16           Ge  tau(  16) = (   0.5000000   0.4811261   0.3000000  )
        17           Ge  tau(  17) = (   0.3333333   0.5773503   0.2450980  )
        18           Ge  tau(  18) = (   0.3333333   0.7698012   0.3000000  )
        19           Si  tau(  19) = (   0.0000000   0.0000000   0.0000000  )
        20           C   tau(  20) = (   0.0000000   0.1443382   0.0000000  )
        21           Si  tau(  21) = (  -0.1250000   0.2165064   0.0000000  )
        22           C   tau(  22) = (  -0.1250000   0.3608446   0.0000000  )
        23           Si  tau(  23) = (  -0.2500000   0.4330127   0.0000000  )
        24           C   tau(  24) = (  -0.2500000   0.5773509   0.0000000  )
        25           Si  tau(  25) = (  -0.3750000   0.6495191   0.0000000  )
        26           C   tau(  26) = (  -0.3750000   0.7938573   0.0000000  )
        27           Si  tau(  27) = (   0.2500000   0.0000000   0.0000000  )
        28           C   tau(  28) = (   0.2500000   0.1443382   0.0000000  )
        29           Si  tau(  29) = (   0.1250000   0.2165064   0.0000000  )
        30           C   tau(  30) = (   0.1250000   0.3608446   0.0000000  )
        31           Si  tau(  31) = (   0.0000000   0.4330127   0.0000000  )
        32           C   tau(  32) = (   0.0000000   0.5773509   0.0000000  )
        33           Si  tau(  33) = (  -0.1250000   0.6495191   0.0000000  )
        34           C   tau(  34) = (  -0.1250000   0.7938573   0.0000000  )
        35           Si  tau(  35) = (   0.5000000   0.0000000   0.0000000  )
        36           C   tau(  36) = (   0.5000000   0.1443382   0.0000000  )
        37           Si  tau(  37) = (   0.3750000   0.2165064   0.0000000  )
        38           C   tau(  38) = (   0.3750000   0.3608446   0.0000000  )
        39           Si  tau(  39) = (   0.2500000   0.4330127   0.0000000  )
        40           C   tau(  40) = (   0.2500000   0.5773509   0.0000000  )
        41           Si  tau(  41) = (   0.1250000   0.6495191   0.0000000  )
        42           C   tau(  42) = (   0.1250000   0.7938573   0.0000000  )
        43           Si  tau(  43) = (   0.7500000   0.0000000   0.0000000  )
        44           C   tau(  44) = (   0.7500000   0.1443382   0.0000000  )
        45           Si  tau(  45) = (   0.6250000   0.2165064   0.0000000  )
        46           C   tau(  46) = (   0.6250000   0.3608446   0.0000000  )
        47           Si  tau(  47) = (   0.5000000   0.4330127   0.0000000  )
        48           C   tau(  48) = (   0.5000000   0.5773509   0.0000000  )
        49           Si  tau(  49) = (   0.3750000   0.6495191   0.0000000  )
        50           C   tau(  50) = (   0.3750000   0.7938573   0.0000000  )

   Crystallographic axes

     site n.     atom                  positions (cryst. coord.)
         1           Ge  tau(   1) = (  0.0000000  0.0000000  0.1500000  )
         2           Ge  tau(   2) = (  0.1111116  0.2222233  0.1836000  )
         3           Ge  tau(   3) = ( -0.0000000  0.3333333  0.1500000  )
         4           Ge  tau(   4) = (  0.1111116  0.5555566  0.1836000  )
         5           Ge  tau(   5) = ( -0.0000000  0.6666667  0.1500000  )
         6           Ge  tau(   6) = (  0.1111116  0.8888899  0.1836000  )
         7           Ge  tau(   7) = (  0.3333333  0.0000000  0.1500000  )
         8           Ge  tau(   8) = (  0.4444450  0.2222233  0.1836000  )
         9           Ge  tau(   9) = (  0.3333333  0.3333333  0.1500000  )
        10           Ge  tau(  10) = (  0.4444450  0.5555566  0.1836000  )
        11           Ge  tau(  11) = (  0.3333333  0.6666667  0.1500000  )
        12           Ge  tau(  12) = (  0.4444450  0.8888899  0.1836000  )
        13           Ge  tau(  13) = (  0.6666667  0.0000000  0.1500000  )
        14           Ge  tau(  14) = (  0.7777783  0.2222233  0.1836000  )
        15           Ge  tau(  15) = (  0.6666667  0.3333333  0.1500000  )
        16           Ge  tau(  16) = (  0.7777783  0.5555566  0.1836000  )
        17           Ge  tau(  17) = (  0.6666667  0.6666667  0.1500000  )
        18           Ge  tau(  18) = (  0.7777783  0.8888899  0.1836000  )
        19           Si  tau(  19) = (  0.0000000  0.0000000  0.0000000  )
        20           C   tau(  20) = (  0.0833337  0.1666674  0.0000000  )
        21           Si  tau(  21) = (  0.0000000  0.2500000  0.0000000  )
        22           C   tau(  22) = (  0.0833337  0.4166674  0.0000000  )
        23           Si  tau(  23) = (  0.0000000  0.5000000  0.0000000  )
        24           C   tau(  24) = (  0.0833337  0.6666674  0.0000000  )
        25           Si  tau(  25) = (  0.0000000  0.7500000  0.0000000  )
        26           C   tau(  26) = (  0.0833337  0.9166674  0.0000000  )
        27           Si  tau(  27) = (  0.2500000  0.0000000  0.0000000  )
        28           C   tau(  28) = (  0.3333337  0.1666674  0.0000000  )
        29           Si  tau(  29) = (  0.2500000  0.2500000  0.0000000  )
        30           C   tau(  30) = (  0.3333337  0.4166674  0.0000000  )
        31           Si  tau(  31) = (  0.2500000  0.5000000  0.0000000  )
        32           C   tau(  32) = (  0.3333337  0.6666674  0.0000000  )
        33           Si  tau(  33) = (  0.2500000  0.7500000  0.0000000  )
        34           C   tau(  34) = (  0.3333337  0.9166674  0.0000000  )
        35           Si  tau(  35) = (  0.5000000  0.0000000  0.0000000  )
        36           C   tau(  36) = (  0.5833337  0.1666674  0.0000000  )
        37           Si  tau(  37) = (  0.5000000  0.2500000  0.0000000  )
        38           C   tau(  38) = (  0.5833337  0.4166674  0.0000000  )
        39           Si  tau(  39) = (  0.5000000  0.5000000  0.0000000  )
        40           C   tau(  40) = (  0.5833337  0.6666674  0.0000000  )
        41           Si  tau(  41) = (  0.5000000  0.7500000  0.0000000  )
        42           C   tau(  42) = (  0.5833337  0.9166674  0.0000000  )
        43           Si  tau(  43) = (  0.7500000  0.0000000  0.0000000  )
        44           C   tau(  44) = (  0.8333337  0.1666674  0.0000000  )
        45           Si  tau(  45) = (  0.7500000  0.2500000  0.0000000  )
        46           C   tau(  46) = (  0.8333337  0.4166674  0.0000000  )
        47           Si  tau(  47) = (  0.7500000  0.5000000  0.0000000  )
        48           C   tau(  48) = (  0.8333337  0.6666674  0.0000000  )
        49           Si  tau(  49) = (  0.7500000  0.7500000  0.0000000  )
        50           C   tau(  50) = (  0.8333337  0.9166674  0.0000000  )

     number of k points=    61  Methfessel-Paxton smearing, width (Ry)=  0.0060
                       cart. coord. in units 2pi/alat
        k(    1) = (   0.0000000   0.5773503   0.0000000), wk =   0.0327869
        k(    2) = (   0.0166667   0.5773503   0.0000000), wk =   0.0327869
        k(    3) = (   0.0333333   0.5773503   0.0000000), wk =   0.0327869
        k(    4) = (   0.0500000   0.5773503   0.0000000), wk =   0.0327869
        k(    5) = (   0.0666667   0.5773503   0.0000000), wk =   0.0327869
        k(    6) = (   0.0833333   0.5773503   0.0000000), wk =   0.0327869
        k(    7) = (   0.1000000   0.5773503   0.0000000), wk =   0.0327869
        k(    8) = (   0.1166667   0.5773502   0.0000000), wk =   0.0327869
        k(    9) = (   0.1333333   0.5773502   0.0000000), wk =   0.0327869
        k(   10) = (   0.1500000   0.5773502   0.0000000), wk =   0.0327869
        k(   11) = (   0.1666666   0.5773502   0.0000000), wk =   0.0327869
        k(   12) = (   0.1833333   0.5773502   0.0000000), wk =   0.0327869
        k(   13) = (   0.2000000   0.5773502   0.0000000), wk =   0.0327869
        k(   14) = (   0.2166666   0.5773502   0.0000000), wk =   0.0327869
        k(   15) = (   0.2333333   0.5773502   0.0000000), wk =   0.0327869
        k(   16) = (   0.2500000   0.5773502   0.0000000), wk =   0.0327869
        k(   17) = (   0.2666666   0.5773502   0.0000000), wk =   0.0327869
        k(   18) = (   0.2833333   0.5773502   0.0000000), wk =   0.0327869
        k(   19) = (   0.3000000   0.5773502   0.0000000), wk =   0.0327869
        k(   20) = (   0.3166666   0.5773502   0.0000000), wk =   0.0327869
        k(   21) = (   0.3333333   0.5773502   0.0000000), wk =   0.0327869
        k(   22) = (   0.3166666   0.5484827   0.0000000), wk =   0.0327869
        k(   23) = (   0.3000000   0.5196152   0.0000000), wk =   0.0327869
        k(   24) = (   0.2833333   0.4907477   0.0000000), wk =   0.0327869
        k(   25) = (   0.2666666   0.4618802   0.0000000), wk =   0.0327869
        k(   26) = (   0.2500000   0.4330127   0.0000000), wk =   0.0327869
        k(   27) = (   0.2333333   0.4041451   0.0000000), wk =   0.0327869
        k(   28) = (   0.2166666   0.3752776   0.0000000), wk =   0.0327869
        k(   29) = (   0.2000000   0.3464101   0.0000000), wk =   0.0327869
        k(   30) = (   0.1833333   0.3175426   0.0000000), wk =   0.0327869
        k(   31) = (   0.1666666   0.2886751   0.0000000), wk =   0.0327869
        k(   32) = (   0.1500000   0.2598076   0.0000000), wk =   0.0327869
        k(   33) = (   0.1333333   0.2309401   0.0000000), wk =   0.0327869
        k(   34) = (   0.1166667   0.2020726   0.0000000), wk =   0.0327869
        k(   35) = (   0.1000000   0.1732051   0.0000000), wk =   0.0327869
        k(   36) = (   0.0833333   0.1443376   0.0000000), wk =   0.0327869
        k(   37) = (   0.0666667   0.1154700   0.0000000), wk =   0.0327869
        k(   38) = (   0.0500000   0.0866025   0.0000000), wk =   0.0327869
        k(   39) = (   0.0333333   0.0577350   0.0000000), wk =   0.0327869
        k(   40) = (   0.0166667   0.0288675   0.0000000), wk =   0.0327869
        k(   41) = (   0.0000000   0.0000000   0.0000000), wk =   0.0327869
        k(   42) = (   0.0000000   0.0288675   0.0000000), wk =   0.0327869
        k(   43) = (   0.0000000   0.0577350   0.0000000), wk =   0.0327869
        k(   44) = (   0.0000000   0.0866025   0.0000000), wk =   0.0327869
        k(   45) = (   0.0000000   0.1154701   0.0000000), wk =   0.0327869
        k(   46) = (   0.0000000   0.1443376   0.0000000), wk =   0.0327869
        k(   47) = (   0.0000000   0.1732051   0.0000000), wk =   0.0327869
        k(   48) = (   0.0000000   0.2020726   0.0000000), wk =   0.0327869
        k(   49) = (   0.0000000   0.2309401   0.0000000), wk =   0.0327869
        k(   50) = (   0.0000000   0.2598076   0.0000000), wk =   0.0327869
        k(   51) = (   0.0000000   0.2886751   0.0000000), wk =   0.0327869
        k(   52) = (   0.0000000   0.3175426   0.0000000), wk =   0.0327869
        k(   53) = (   0.0000000   0.3464102   0.0000000), wk =   0.0327869
        k(   54) = (   0.0000000   0.3752777   0.0000000), wk =   0.0327869
        k(   55) = (   0.0000000   0.4041452   0.0000000), wk =   0.0327869
        k(   56) = (   0.0000000   0.4330127   0.0000000), wk =   0.0327869
        k(   57) = (   0.0000000   0.4618802   0.0000000), wk =   0.0327869
        k(   58) = (   0.0000000   0.4907477   0.0000000), wk =   0.0327869
        k(   59) = (   0.0000000   0.5196152   0.0000000), wk =   0.0327869
        k(   60) = (   0.0000000   0.5484828   0.0000000), wk =   0.0327869
        k(   61) = (   0.0000000   0.5773503   0.0000000), wk =   0.0327869

                       cryst. coord.
        k(    1) = (   0.0000000   0.5000000   0.0000000), wk =   0.0327869
        k(    2) = (   0.0166667   0.4916667   0.0000000), wk =   0.0327869
        k(    3) = (   0.0333333   0.4833333   0.0000000), wk =   0.0327869
        k(    4) = (   0.0500000   0.4750000   0.0000000), wk =   0.0327869
        k(    5) = (   0.0666667   0.4666667   0.0000000), wk =   0.0327869
        k(    6) = (   0.0833333   0.4583333   0.0000000), wk =   0.0327869
        k(    7) = (   0.1000000   0.4500000   0.0000000), wk =   0.0327869
        k(    8) = (   0.1166667   0.4416667   0.0000000), wk =   0.0327869
        k(    9) = (   0.1333333   0.4333333   0.0000000), wk =   0.0327869
        k(   10) = (   0.1500000   0.4250000   0.0000000), wk =   0.0327869
        k(   11) = (   0.1666666   0.4166667   0.0000000), wk =   0.0327869
        k(   12) = (   0.1833333   0.4083333   0.0000000), wk =   0.0327869
        k(   13) = (   0.2000000   0.4000000   0.0000000), wk =   0.0327869
        k(   14) = (   0.2166666   0.3916666   0.0000000), wk =   0.0327869
        k(   15) = (   0.2333333   0.3833333   0.0000000), wk =   0.0327869
        k(   16) = (   0.2500000   0.3750000   0.0000000), wk =   0.0327869
        k(   17) = (   0.2666666   0.3666666   0.0000000), wk =   0.0327869
        k(   18) = (   0.2833333   0.3583333   0.0000000), wk =   0.0327869
        k(   19) = (   0.3000000   0.3500000   0.0000000), wk =   0.0327869
        k(   20) = (   0.3166666   0.3416666   0.0000000), wk =   0.0327869
        k(   21) = (   0.3333333   0.3333333   0.0000000), wk =   0.0327869
        k(   22) = (   0.3166666   0.3166666   0.0000000), wk =   0.0327869
        k(   23) = (   0.3000000   0.3000000   0.0000000), wk =   0.0327869
        k(   24) = (   0.2833333   0.2833333   0.0000000), wk =   0.0327869
        k(   25) = (   0.2666666   0.2666666   0.0000000), wk =   0.0327869
        k(   26) = (   0.2500000   0.2500000   0.0000000), wk =   0.0327869
        k(   27) = (   0.2333333   0.2333333   0.0000000), wk =   0.0327869
        k(   28) = (   0.2166666   0.2166666   0.0000000), wk =   0.0327869
        k(   29) = (   0.2000000   0.2000000   0.0000000), wk =   0.0327869
        k(   30) = (   0.1833333   0.1833333   0.0000000), wk =   0.0327869
        k(   31) = (   0.1666666   0.1666667   0.0000000), wk =   0.0327869
        k(   32) = (   0.1500000   0.1500000   0.0000000), wk =   0.0327869
        k(   33) = (   0.1333333   0.1333333   0.0000000), wk =   0.0327869
        k(   34) = (   0.1166667   0.1166667   0.0000000), wk =   0.0327869
        k(   35) = (   0.1000000   0.1000000   0.0000000), wk =   0.0327869
        k(   36) = (   0.0833333   0.0833333   0.0000000), wk =   0.0327869
        k(   37) = (   0.0666667   0.0666667   0.0000000), wk =   0.0327869
        k(   38) = (   0.0500000   0.0500000   0.0000000), wk =   0.0327869
        k(   39) = (   0.0333333   0.0333333   0.0000000), wk =   0.0327869
        k(   40) = (   0.0166667   0.0166667   0.0000000), wk =   0.0327869
        k(   41) = (   0.0000000   0.0000000   0.0000000), wk =   0.0327869
        k(   42) = (   0.0000000   0.0250000   0.0000000), wk =   0.0327869
        k(   43) = (   0.0000000   0.0500000   0.0000000), wk =   0.0327869
        k(   44) = (   0.0000000   0.0750000   0.0000000), wk =   0.0327869
        k(   45) = (   0.0000000   0.1000000   0.0000000), wk =   0.0327869
        k(   46) = (   0.0000000   0.1250000   0.0000000), wk =   0.0327869
        k(   47) = (   0.0000000   0.1500000   0.0000000), wk =   0.0327869
        k(   48) = (   0.0000000   0.1750000   0.0000000), wk =   0.0327869
        k(   49) = (   0.0000000   0.2000000   0.0000000), wk =   0.0327869
        k(   50) = (   0.0000000   0.2250000   0.0000000), wk =   0.0327869
        k(   51) = (   0.0000000   0.2500000   0.0000000), wk =   0.0327869
        k(   52) = (   0.0000000   0.2750000   0.0000000), wk =   0.0327869
        k(   53) = (   0.0000000   0.3000000   0.0000000), wk =   0.0327869
        k(   54) = (   0.0000000   0.3250000   0.0000000), wk =   0.0327869
        k(   55) = (   0.0000000   0.3500000   0.0000000), wk =   0.0327869
        k(   56) = (   0.0000000   0.3750000   0.0000000), wk =   0.0327869
        k(   57) = (   0.0000000   0.4000000   0.0000000), wk =   0.0327869
        k(   58) = (   0.0000000   0.4250000   0.0000000), wk =   0.0327869
        k(   59) = (   0.0000000   0.4500000   0.0000000), wk =   0.0327869
        k(   60) = (   0.0000000   0.4750000   0.0000000), wk =   0.0327869
        k(   61) = (   0.0000000   0.5000000   0.0000000), wk =   0.0327869

     Dense  grid:   388955 G-vectors     FFT dimensions: (  81,  81, 135)

     Dynamical RAM for                 wfc:      88.97 MB

     Dynamical RAM for     wfc (w. buffer):      88.97 MB

     Dynamical RAM for           str. fact:      17.80 MB

     Dynamical RAM for           local pot:       0.00 MB

     Dynamical RAM for          nlocal pot:     461.17 MB

     Dynamical RAM for                qrad:       3.88 MB

     Dynamical RAM for          rho,v,vnew:      38.08 MB

     Dynamical RAM for           G-vectors:      25.22 MB

     Dynamical RAM for          h,s,v(r/c):      10.55 MB

     Dynamical RAM for          <psi|beta>:       1.14 MB

     Dynamical RAM for                 psi:     355.88 MB

     Dynamical RAM for                hpsi:     355.88 MB

     Dynamical RAM for      wfcinit/wfcrot:    1200.93 MB

     Estimated static dynamical RAM per process >     692.65 MB

     Estimated max dynamical RAM per process >       1.85 GB

     The potential is recalculated from file :
     /home/nano3/Desktop/RAYID/Ge+SiC/Ge+SiC_I/work/Ge+SiC_I__3.0.save/charge-density.dat

     Starting wfcs are  800 randomized atomic wfcs

     Band Structure Calculation
     Davidson diagonalization with overlap

     Computing kpt #:     1
     total cpu time spent up to now is      337.6 secs

     Computing kpt #:     2
     total cpu time spent up to now is      673.7 secs

     Computing kpt #:     3
     total cpu time spent up to now is     1005.6 secs

     Computing kpt #:     4
     total cpu time spent up to now is     1335.3 secs

     Computing kpt #:     5
     total cpu time spent up to now is     1666.3 secs

     Computing kpt #:     6
     total cpu time spent up to now is     1997.7 secs

     Computing kpt #:     7
     total cpu time spent up to now is     2326.7 secs

     Computing kpt #:     8
     total cpu time spent up to now is     2660.8 secs

     Computing kpt #:     9
     total cpu time spent up to now is     2992.6 secs

     Computing kpt #:    10
     total cpu time spent up to now is     3321.0 secs

     Computing kpt #:    11
     total cpu time spent up to now is     3648.7 secs

     Computing kpt #:    12
     total cpu time spent up to now is     3980.5 secs

     Computing kpt #:    13
     total cpu time spent up to now is     4309.2 secs

     Computing kpt #:    14
     total cpu time spent up to now is     4639.1 secs

     Computing kpt #:    15
     total cpu time spent up to now is     4973.6 secs

     Computing kpt #:    16
     total cpu time spent up to now is     5303.1 secs

     Computing kpt #:    17
     total cpu time spent up to now is     5629.6 secs

     Computing kpt #:    18
     total cpu time spent up to now is     5959.4 secs

     Computing kpt #:    19
     total cpu time spent up to now is     6294.4 secs

     Computing kpt #:    20
     total cpu time spent up to now is     6625.7 secs

     Computing kpt #:    21
     total cpu time spent up to now is     6954.6 secs

     Computing kpt #:    22
     total cpu time spent up to now is     7283.7 secs

     Computing kpt #:    23
     total cpu time spent up to now is     7610.9 secs

     Computing kpt #:    24
     total cpu time spent up to now is     7938.8 secs

     Computing kpt #:    25
     total cpu time spent up to now is     8263.9 secs

     Computing kpt #:    26
     total cpu time spent up to now is     8585.2 secs

     Computing kpt #:    27
     total cpu time spent up to now is     8907.7 secs

     Computing kpt #:    28
     total cpu time spent up to now is     9231.2 secs

     Computing kpt #:    29
     total cpu time spent up to now is     9557.4 secs

     Computing kpt #:    30
     total cpu time spent up to now is     9882.3 secs

     Computing kpt #:    31
     total cpu time spent up to now is    10207.5 secs

     Computing kpt #:    32
     total cpu time spent up to now is    10534.7 secs

     Computing kpt #:    33
     total cpu time spent up to now is    10859.7 secs

     Computing kpt #:    34
     total cpu time spent up to now is    11188.2 secs

     Computing kpt #:    35
     total cpu time spent up to now is    11516.0 secs

     Computing kpt #:    36
     total cpu time spent up to now is    11840.4 secs

     Computing kpt #:    37
     total cpu time spent up to now is    12162.6 secs

     Computing kpt #:    38
     total cpu time spent up to now is    12492.9 secs

     Computing kpt #:    39
     total cpu time spent up to now is    12794.8 secs

     Computing kpt #:    40
     total cpu time spent up to now is    13095.0 secs

     Computing kpt #:    41
     total cpu time spent up to now is    13395.8 secs

     Computing kpt #:    42
     total cpu time spent up to now is    13698.4 secs

     Computing kpt #:    43
     total cpu time spent up to now is    14003.1 secs

     Computing kpt #:    44
     total cpu time spent up to now is    14304.7 secs

     Computing kpt #:    45
     total cpu time spent up to now is    14609.7 secs

     Computing kpt #:    46
     total cpu time spent up to now is    14928.9 secs

     Computing kpt #:    47
     total cpu time spent up to now is    15254.1 secs

     Computing kpt #:    48
     total cpu time spent up to now is    15556.1 secs

     Computing kpt #:    49
     total cpu time spent up to now is    15860.5 secs

     Computing kpt #:    50
     total cpu time spent up to now is    16164.4 secs

     Computing kpt #:    51
     total cpu time spent up to now is    16468.1 secs

     Computing kpt #:    52
     total cpu time spent up to now is    16771.7 secs

     Computing kpt #:    53
     total cpu time spent up to now is    17073.8 secs

     Computing kpt #:    54
     total cpu time spent up to now is    17378.6 secs

     Computing kpt #:    55
     total cpu time spent up to now is    17686.1 secs

     Computing kpt #:    56
     total cpu time spent up to now is    17995.5 secs

     Computing kpt #:    57
     total cpu time spent up to now is    18303.0 secs

     Computing kpt #:    58
     total cpu time spent up to now is    18599.2 secs

     Computing kpt #:    59
     total cpu time spent up to now is    18889.4 secs

     Computing kpt #:    60
     total cpu time spent up to now is    19171.5 secs

     Computing kpt #:    61
     total cpu time spent up to now is    19470.9 secs

     ethr =  5.00E-08,  avg # of iterations = 28.5

     total cpu time spent up to now is    19470.9 secs

     End of band structure calculation

          k = 0.0000 0.5774 0.0000 ( 48666 PWs)   bands (ev):

   -15.8097 -15.7059 -15.2375 -15.2168 -14.2702 -14.2636 -14.2588 -14.2550
   -13.8629 -13.7635 -13.1878 -13.1383 -13.0598 -13.0081 -12.4983 -12.4912
   -11.7691 -11.7503 -11.1931 -11.1860 -10.1991 -10.1924 -10.1683 -10.1657
   -10.0853  -9.5984  -9.5747  -9.4999  -9.4995  -9.4759  -9.4457  -8.8379
    -8.7867  -8.2679  -8.0155  -8.0101  -7.9911  -7.9900  -7.7350  -7.7248
    -7.7245  -7.7233  -7.3710  -7.3609  -6.3968  -6.3946  -6.1814  -6.1059
    -5.8339  -5.8106  -5.7781  -5.7513  -5.7460  -5.6917  -5.2971  -5.2967
    -5.2674  -5.2530  -5.2446  -5.2374  -4.7559  -4.6553  -4.6076  -4.5962
    -4.4515  -4.4092  -4.4064  -4.3938  -4.3863  -4.3563  -4.3341  -4.2585
    -4.0448  -3.9075  -3.9018  -3.8653  -3.8644  -3.7244  -3.6517  -3.5498
    -3.1760  -3.1485  -3.0667  -3.0158  -2.9241  -2.8335  -2.8009  -2.6209
    -2.6195  -2.2924  -2.2901  -2.2332  -2.2157  -1.9387  -1.9291  -1.5989
    -1.4585  -1.4445  -1.4184  -1.3975  -0.4587  -0.3142  -0.1146  -0.0205
     0.0989   0.3756   0.4177   0.6668   0.7845   0.8024   1.0081   1.0583
     1.1926   1.2366   1.2549   1.2724   1.8421   1.8610   1.8982   1.9256

          k = 0.0167 0.5774 0.0000 ( 48606 PWs)   bands (ev):

   -15.8094 -15.7057 -15.2537 -15.1998 -14.2877 -14.2821 -14.2411 -14.2362
   -13.8625 -13.7631 -13.1982 -13.1336 -13.0650 -12.9984 -12.5057 -12.4837
   -11.7688 -11.7500 -11.2172 -11.1612 -10.2118 -10.1958 -10.1675 -10.1512
   -10.0847  -9.6097  -9.5702  -9.5098  -9.4872  -9.4759  -9.4362  -8.8376
    -8.7865  -8.2680  -8.0419  -8.0230  -7.9791  -7.9618  -7.7779  -7.7719
    -7.6817  -7.6760  -7.4064  -7.3222  -6.4417  -6.3512  -6.1810  -6.1056
    -5.8516  -5.8363  -5.7808  -5.7417  -5.7230  -5.6746  -5.3046  -5.2879
    -5.2668  -5.2523  -5.2447  -5.2341  -4.7557  -4.6552  -4.6082  -4.5968
    -4.4547  -4.4265  -4.4150  -4.3848  -4.3694  -4.3609  -4.3328  -4.2498
    -4.0446  -3.9098  -3.9006  -3.8664  -3.8607  -3.7243  -3.6494  -3.5476
    -3.1848  -3.1474  -3.0767  -3.0048  -2.9258  -2.8309  -2.7968  -2.6207
    -2.6194  -2.3128  -2.2690  -2.2411  -2.2075  -1.9398  -1.9303  -1.5978
    -1.4675  -1.4371  -1.4228  -1.3922  -0.4589  -0.3145  -0.1148  -0.0207
     0.0982   0.3732   0.4221   0.6684   0.7865   0.8045   1.0083   1.0575
     1.1936   1.2366   1.2567   1.2725   1.8421   1.8584   1.8982   1.9263

          k = 0.0333 0.5774 0.0000 ( 48590 PWs)   bands (ev):

   -15.8089 -15.7051 -15.2771 -15.1752 -14.3095 -14.3040 -14.2186 -14.2136
   -13.8618 -13.7625 -13.2202 -13.1344 -13.0664 -12.9784 -12.5159 -12.4738
   -11.7681 -11.7492 -11.2443 -11.1329 -10.2298 -10.2121 -10.1531 -10.1338
   -10.0832  -9.6298  -9.5761  -9.5052  -9.4951  -9.4578  -9.4169  -8.8374
    -8.7861  -8.2684  -8.0717  -8.0518  -7.9486  -7.9317  -7.8270  -7.8212
    -7.6341  -7.6282  -7.4448  -7.2788  -6.4892  -6.3090  -6.1807  -6.1054
    -5.8995  -5.8634  -5.8050  -5.7175  -5.6844  -5.6362  -5.3108  -5.2795
    -5.2662  -5.2511  -5.2447  -5.2266  -4.7593  -4.6590  -4.6103  -4.5987
    -4.4657  -4.4451  -4.4354  -4.3784  -4.3590  -4.3490  -4.3316  -4.2303
    -4.0440  -3.9139  -3.9000  -3.8644  -3.8549  -3.7242  -3.6515  -3.5501
    -3.2051  -3.1509  -3.0957  -2.9838  -2.9307  -2.8229  -2.7858  -2.6205
    -2.6191  -2.3338  -2.2552  -2.2448  -2.1920  -1.9434  -1.9339  -1.5950
    -1.4817  -1.4385  -1.4194  -1.3825  -0.4596  -0.3154  -0.1156  -0.0212
     0.0959   0.3680   0.4330   0.6731   0.7925   0.8107   1.0087   1.0553
     1.1966   1.2366   1.2615   1.2728   1.8417   1.8511   1.8977   1.9273

          k = 0.0500 0.5774 0.0000 ( 48588 PWs)   bands (ev):

   -15.8079 -15.7040 -15.3007 -15.1495 -14.3313 -14.3259 -14.1956 -14.1906
   -13.8606 -13.7614 -13.2464 -13.1504 -13.0542 -12.9556 -12.5264 -12.4639
   -11.7668 -11.7480 -11.2709 -11.1042 -10.2487 -10.2308 -10.1377 -10.1164
   -10.0804  -9.6505  -9.5919  -9.5120  -9.4845  -9.4371  -9.3928  -8.8367
    -8.7855  -8.2690  -8.1014  -8.0807  -7.9177  -7.9016  -7.8756  -7.8699
    -7.5868  -7.5809  -7.4824  -7.2344  -6.5378  -6.2697  -6.1795  -6.1044
    -5.9526  -5.8915  -5.8340  -5.6898  -5.6492  -5.5882  -5.3151  -5.2721
    -5.2656  -5.2494  -5.2437  -5.2153  -4.7649  -4.6649  -4.6138  -4.6017
    -4.4832  -4.4642  -4.4563  -4.3888  -4.3435  -4.3363  -4.3204  -4.2061
    -4.0429  -3.9180  -3.9009  -3.8594  -3.8480  -3.7239  -3.6538  -3.5529
    -3.2312  -3.1631  -3.1153  -2.9639  -2.9359  -2.8088  -2.7700  -2.6199
    -2.6186  -2.3544  -2.2686  -2.2222  -2.1784  -1.9492  -1.9399  -1.5902
    -1.4967  -1.4499  -1.4077  -1.3725  -0.4609  -0.3169  -0.1168  -0.0222
     0.0921   0.3623   0.4478   0.6809   0.8024   0.8210   1.0095   1.0517
     1.2011   1.2368   1.2680   1.2747   1.8382   1.8433   1.8965   1.9271

          k = 0.0667 0.5774 0.0000 ( 48594 PWs)   bands (ev):

   -15.8065 -15.7026 -15.3240 -15.1235 -14.3529 -14.3475 -14.1723 -14.1673
   -13.8590 -13.7599 -13.2744 -13.1747 -13.0352 -12.9324 -12.5370 -12.4542
   -11.7652 -11.7463 -11.2973 -11.0751 -10.2680 -10.2501 -10.1232 -10.0995
   -10.0763  -9.6711  -9.6109  -9.5256  -9.4657  -9.4148  -9.3657  -8.8360
    -8.7847  -8.2699  -8.1307  -8.1094  -7.9248  -7.9193  -7.8858  -7.8700
    -7.5399  -7.5339  -7.5187  -7.1888  -6.5874  -6.2348  -6.1776  -6.1038
    -6.0054  -5.9207  -5.8640  -5.6604  -5.6164  -5.5359  -5.3165  -5.2660
    -5.2646  -5.2467  -5.2413  -5.2014  -4.7723  -4.6727  -4.6192  -4.6062
    -4.5049  -4.4844  -4.4771  -4.3990  -4.3442  -4.3158  -4.2987  -4.1795
    -4.0413  -3.9215  -3.9025  -3.8522  -3.8404  -3.7234  -3.6574  -3.5573
    -3.2607  -3.1835  -3.1350  -2.9623  -2.9264  -2.7890  -2.7514  -2.6192
    -2.6180  -2.3743  -2.2827  -2.1987  -2.1652  -1.9572  -1.9481  -1.5839
    -1.5120  -1.4628  -1.3956  -1.3628  -0.4627  -0.3191  -0.1185  -0.0236
     0.0871   0.3571   0.4653   0.6917   0.8160   0.8351   1.0107   1.0475
     1.2066   1.2372   1.2705   1.2834   1.8254   1.8421   1.8937   1.9245

          k = 0.0833 0.5774 0.0000 ( 48584 PWs)   bands (ev):

   -15.8047 -15.7007 -15.3468 -15.0968 -14.3743 -14.3688 -14.1488 -14.1438
   -13.8570 -13.7581 -13.3035 -13.2023 -13.0144 -12.9095 -12.5476 -12.4447
   -11.7630 -11.7441 -11.3233 -11.0455 -10.2875 -10.2696 -10.1105 -10.0830
   -10.0703  -9.6904  -9.6297  -9.5395  -9.4482  -9.3895  -9.3353  -8.8350
    -8.7836  -8.2712  -8.1596  -8.1378  -7.9729  -7.9671  -7.8546  -7.8393
    -7.5530  -7.4940  -7.4880  -7.1423  -6.6376  -6.2092  -6.1717  -6.1038
    -6.0564  -5.9502  -5.8942  -5.6302  -5.5847  -5.4816  -5.3147  -5.2627
    -5.2596  -5.2420  -5.2371  -5.1841  -4.7839  -4.6847  -4.6267  -4.6120
    -4.5295  -4.5057  -4.4980  -4.4079  -4.3489  -4.2932  -4.2754  -4.1518
    -4.0389  -3.9243  -3.9040  -3.8438  -3.8323  -3.7224  -3.6599  -3.5607
    -3.2925  -3.2070  -3.1549  -2.9763  -2.9048  -2.7643  -2.7308  -2.6183
    -2.6173  -2.3935  -2.2969  -2.1745  -2.1519  -1.9672  -1.9583  -1.5768
    -1.5271  -1.4762  -1.3838  -1.3534  -0.4648  -0.3217  -0.1205  -0.0250
     0.0811   0.3527   0.4849   0.7057   0.8330   0.8529   1.0123   1.0431
     1.2127   1.2382   1.2707   1.2972   1.8098   1.8415   1.8866   1.9197

          k = 0.1000 0.5774 0.0000 ( 48562 PWs)   bands (ev):

   -15.8027 -15.6985 -15.3692 -15.0697 -14.3952 -14.3898 -14.1250 -14.1201
   -13.8543 -13.7558 -13.3335 -13.2316 -12.9935 -12.8872 -12.5579 -12.4356
   -11.7603 -11.7414 -11.3488 -11.0156 -10.3071 -10.2892 -10.1000 -10.0676
   -10.0618  -9.7090  -9.6483  -9.5531  -9.4330  -9.3608  -9.3031  -8.8339
    -8.7824  -8.2727  -8.1881  -8.1662  -8.0206  -8.0142  -7.8232  -7.8084
    -7.5849  -7.4486  -7.4426  -7.0938  -6.6884  -6.2037  -6.1573  -6.1119
    -6.0905  -5.9801  -5.9247  -5.5999  -5.5539  -5.4283  -5.3091  -5.2588
    -5.2525  -5.2350  -5.2312  -5.1645  -4.7961  -4.6975  -4.6368  -4.6192
    -4.5551  -4.5260  -4.5178  -4.4164  -4.3555  -4.2703  -4.2517  -4.1247
    -4.0366  -3.9262  -3.9051  -3.8347  -3.8239  -3.7223  -3.6642  -3.5662
    -3.3258  -3.2321  -3.1761  -2.9954  -2.8822  -2.7362  -2.7093  -2.6173
    -2.6164  -2.4121  -2.3099  -2.1498  -2.1382  -1.9791  -1.9704  -1.5712
    -1.5398  -1.4894  -1.3729  -1.3449  -0.4674  -0.3247  -0.1230  -0.0266
     0.0744   0.3490   0.5060   0.7227   0.8531   0.8743   1.0145   1.0390
     1.2183   1.2400   1.2704   1.3139   1.7927   1.8401   1.8726   1.9148

          k = 0.1167 0.5774 0.0000 ( 48566 PWs)   bands (ev):

   -15.8003 -15.6960 -15.3912 -15.0422 -14.4160 -14.4105 -14.1014 -14.0964
   -13.8511 -13.7529 -13.3641 -13.2620 -12.9730 -12.8658 -12.5683 -12.4269
   -11.7571 -11.7383 -11.3740 -10.9855 -10.3268 -10.3089 -10.0916 -10.0540
   -10.0503  -9.7257  -9.6653  -9.5672  -9.4208  -9.3295  -9.2692  -8.8325
    -8.7809  -8.2747  -8.2166  -8.1947  -8.0663  -8.0591  -7.7919  -7.7775
    -7.6159  -7.4047  -7.3987  -7.0461  -6.7398  -6.2230  -6.1542  -6.1176
    -6.0949  -6.0099  -5.9550  -5.5689  -5.5232  -5.3766  -5.2994  -5.2547
    -5.2445  -5.2270  -5.2247  -5.1433  -4.8108  -4.7127  -4.6509  -4.6277
    -4.5807  -4.5457  -4.5373  -4.4260  -4.3644  -4.2472  -4.2278  -4.0972
    -4.0338  -3.9270  -3.9054  -3.8254  -3.8155  -3.7220  -3.6698  -3.5733
    -3.3600  -3.2582  -3.1990  -3.0177  -2.8601  -2.7058  -2.6871  -2.6161
    -2.6153  -2.4298  -2.3241  -2.1276  -2.1236  -1.9926  -1.9841  -1.5733
    -1.5445  -1.5018  -1.3628  -1.3372  -0.4703  -0.3281  -0.1259  -0.0283
     0.0670   0.3458   0.5283   0.7428   0.8760   0.8987   1.0169   1.0360
     1.2225   1.2434   1.2699   1.3328   1.7742   1.8366   1.8527   1.9105

          k = 0.1333 0.5774 0.0000 ( 48556 PWs)   bands (ev):

   -15.7976 -15.6931 -15.4126 -15.0142 -14.4364 -14.4309 -14.0776 -14.0725
   -13.8474 -13.7497 -13.3952 -13.2930 -12.9534 -12.8455 -12.5785 -12.4184
   -11.7535 -11.7347 -11.3988 -10.9549 -10.3464 -10.3285 -10.0846 -10.0422
   -10.0369  -9.7416  -9.6816  -9.5813  -9.4098  -9.2957  -9.2338  -8.8311
    -8.7794  -8.2779  -8.2452  -8.2246  -8.1112  -8.1025  -7.7606  -7.7466
    -7.6435  -7.3610  -7.3551  -6.9969  -6.7913  -6.2643  -6.1600  -6.1010
    -6.0935  -6.0398  -5.9853  -5.5385  -5.4934  -5.3278  -5.2857  -5.2491
    -5.2349  -5.2188  -5.2135  -5.1207  -4.8271  -4.7294  -4.6698  -4.6375
    -4.6039  -4.5648  -4.5562  -4.4353  -4.3739  -4.2235  -4.2032  -4.0692
    -4.0305  -3.9268  -3.9048  -3.8163  -3.8073  -3.7221  -3.6773  -3.5825
    -3.3949  -3.2842  -3.2228  -3.0426  -2.8392  -2.6751  -2.6639  -2.6148
    -2.6141  -2.4466  -2.3377  -2.1140  -2.0995  -2.0075  -1.9989  -1.5853
    -1.5420  -1.5109  -1.3536  -1.3304  -0.4734  -0.3318  -0.1290  -0.0300
     0.0594   0.3430   0.5513   0.7657   0.9009   0.9258   1.0194   1.0348
     1.2249   1.2488   1.2692   1.3536   1.7546   1.8192   1.8408   1.9030

          k = 0.1500 0.5774 0.0000 ( 48568 PWs)   bands (ev):

   -15.7945 -15.6898 -15.4336 -14.9861 -14.4564 -14.4509 -14.0539 -14.0485
   -13.8432 -13.7461 -13.4267 -13.3246 -12.9349 -12.8263 -12.5884 -12.4104
   -11.7494 -11.7306 -11.4231 -10.9240 -10.3661 -10.3481 -10.0782 -10.0311
   -10.0240  -9.7556  -9.6960  -9.5952  -9.4005  -9.2603  -9.1972  -8.8295
    -8.7777  -8.2867  -8.2706  -8.2562  -8.1534  -8.1426  -7.7296  -7.7159
    -7.6700  -7.3181  -7.3123  -6.9470  -6.8432  -6.3162  -6.1616  -6.0932
    -6.0825  -6.0698  -6.0160  -5.5085  -5.4644  -5.2878  -5.2678  -5.2429
    -5.2248  -5.2112  -5.1921  -5.0971  -4.8454  -4.7483  -4.6941  -4.6486
    -4.6241  -4.5834  -4.5747  -4.4455  -4.3849  -4.2005  -4.1791  -4.0416
    -4.0267  -3.9255  -3.9033  -3.8079  -3.7993  -3.7223  -3.6853  -3.5924
    -3.4302  -3.3091  -3.2465  -3.0697  -2.8198  -2.6487  -2.6361  -2.6132
    -2.6128  -2.4623  -2.3510  -2.1028  -2.0758  -2.0234  -2.0139  -1.6005
    -1.5450  -1.5105  -1.3457  -1.3248  -0.4768  -0.3357  -0.1324  -0.0316
     0.0517   0.3404   0.5747   0.7914   0.9270   0.9548   1.0222   1.0364
     1.2258   1.2556   1.2685   1.3758   1.7339   1.7901   1.8356   1.8827

          k = 0.1667 0.5774 0.0000 ( 48582 PWs)   bands (ev):

   -15.7911 -15.6861 -15.4539 -14.9578 -14.4762 -14.4706 -14.0302 -14.0245
   -13.8383 -13.7420 -13.4585 -13.3566 -12.9175 -12.8083 -12.5978 -12.4030
   -11.7448 -11.7260 -11.4469 -10.8928 -10.3857 -10.3677 -10.0720 -10.0205
   -10.0120  -9.7675  -9.7086  -9.6089  -9.3926  -9.2237  -9.1598  -8.8278
    -8.7759  -8.3146  -8.2952  -8.2763  -8.1910  -8.1776  -7.6992  -7.6949
    -7.6854  -7.2765  -7.2709  -6.8969  -6.8938  -6.3715  -6.1609  -6.1033
    -6.0874  -6.0693  -6.0450  -5.4791  -5.4363  -5.2637  -5.2432  -5.2347
    -5.2151  -5.2027  -5.1580  -5.0727  -4.8661  -4.7697  -4.7243  -4.6609
    -4.6423  -4.6020  -4.5932  -4.4566  -4.3972  -4.1772  -4.1547  -4.0224
    -4.0136  -3.9229  -3.9007  -3.8006  -3.7916  -3.7225  -3.6927  -3.6020
    -3.4656  -3.3322  -3.2695  -3.0984  -2.8011  -2.6265  -2.6120  -2.6112
    -2.6032  -2.4764  -2.3639  -2.0925  -2.0595  -2.0398  -2.0227  -1.6167
    -1.5555  -1.5009  -1.3387  -1.3201  -0.4801  -0.3395  -0.1359  -0.0330
     0.0442   0.3381   0.5980   0.8197   0.9531   0.9841   1.0265   1.0417
     1.2259   1.2627   1.2684   1.3993   1.7123   1.7582   1.8254   1.8584

          k = 0.1833 0.5774 0.0000 ( 48592 PWs)   bands (ev):

   -15.7874 -15.6822 -15.4736 -14.9288 -14.4956 -14.4900 -14.0070 -14.0005
   -13.8329 -13.7376 -13.4905 -13.3889 -12.9013 -12.7917 -12.6069 -12.3960
   -11.7398 -11.7210 -11.4703 -10.8612 -10.4052 -10.3871 -10.0656 -10.0108
   -10.0011  -9.7779  -9.7196  -9.6225  -9.3856  -9.1857  -9.1211  -8.8261
    -8.7740  -8.3508  -8.3340  -8.2812  -8.2231  -8.2069  -7.7170  -7.6685
    -7.6552  -7.2356  -7.2301  -6.9473  -6.8443  -6.4268  -6.1596  -6.1308
    -6.0861  -6.0790  -6.0527  -5.4495  -5.4082  -5.2477  -5.2290  -5.2141
    -5.2040  -5.1917  -5.1124  -5.0474  -4.8908  -4.7949  -4.7562  -4.6744
    -4.6590  -4.6202  -4.6113  -4.4688  -4.4111  -4.1546  -4.1307  -4.0175
    -3.9868  -3.9191  -3.8970  -3.7954  -3.7846  -3.7238  -3.7007  -3.6123
    -3.5011  -3.3541  -3.2920  -3.1285  -2.7839  -2.6113  -2.6099  -2.6042
    -2.5716  -2.4880  -2.3764  -2.0842  -2.0651  -2.0566  -2.0096  -1.6332
    -1.5686  -1.4881  -1.3331  -1.3168  -0.4835  -0.3433  -0.1395  -0.0342
     0.0368   0.3360   0.6204   0.8500   0.9767   1.0100   1.0344   1.0535
     1.2253   1.2657   1.2735   1.4230   1.6898   1.7247   1.8024   1.8450

          k = 0.2000 0.5774 0.0000 ( 48596 PWs)   bands (ev):

   -15.7836 -15.6780 -15.4924 -14.8994 -14.5147 -14.5091 -13.9839 -13.9763
   -13.8266 -13.7326 -13.5227 -13.4215 -12.8865 -12.7764 -12.6155 -12.3896
   -11.7343 -11.7155 -11.4932 -10.8293 -10.4245 -10.4065 -10.0590 -10.0022
    -9.9914  -9.7868  -9.7293  -9.6358  -9.3797  -9.1468  -9.0818  -8.8243
    -8.7720  -8.3911  -8.3770  -8.2855  -8.2494  -8.2307  -7.7375  -7.6385
    -7.6252  -7.1962  -7.1908  -6.9992  -6.7926  -6.4825  -6.1600  -6.1569
    -6.1068  -6.0833  -6.0458  -5.4201  -5.3803  -5.2346  -5.2199  -5.1991
    -5.1889  -5.1700  -5.0615  -5.0210  -4.9149  -4.8201  -4.7895  -4.6890
    -4.6754  -4.6383  -4.6291  -4.4828  -4.4271  -4.1321  -4.1065  -4.0118
    -3.9585  -3.9140  -3.8921  -3.7924  -3.7783  -3.7253  -3.7104  -3.6245
    -3.5365  -3.3733  -3.3128  -3.1594  -2.7684  -2.6089  -2.6080  -2.5853
    -2.5459  -2.4920  -2.3884  -2.0857  -2.0779  -2.0689  -1.9855  -1.6499
    -1.5824  -1.4738  -1.3285  -1.3145  -0.4868  -0.3470  -0.1431  -0.0350
     0.0299   0.3339   0.6417   0.8817   0.9953   1.0290   1.0451   1.0770
     1.2245   1.2666   1.2826   1.4464   1.6664   1.6903   1.7732   1.8385

          k = 0.2167 0.5774 0.0000 ( 48594 PWs)   bands (ev):

   -15.7795 -15.6735 -15.5105 -14.8696 -14.5335 -14.5279 -13.9614 -13.9521
   -13.8194 -13.7271 -13.5548 -13.4542 -12.8733 -12.7628 -12.6233 -12.3838
   -11.7283 -11.7096 -11.5157 -10.7971 -10.4436 -10.4255 -10.0522  -9.9950
    -9.9832  -9.7940  -9.7374  -9.6488  -9.3746  -9.1075  -9.0422  -8.8222
    -8.7698  -8.4343  -8.4225  -8.2904  -8.2704  -8.2496  -7.7550  -7.6089
    -7.5956  -7.1580  -7.1527  -7.0511  -6.7399  -6.5385  -6.1888  -6.1549
    -6.1360  -6.0801  -6.0408  -5.3905  -5.3526  -5.2219  -5.2101  -5.1886
    -5.1767  -5.1368  -5.0085  -4.9941  -4.9410  -4.8478  -4.8236  -4.7045
    -4.6918  -4.6562  -4.6467  -4.4973  -4.4440  -4.1104  -4.0827  -4.0049
    -3.9328  -3.9076  -3.8860  -3.7919  -3.7735  -3.7271  -3.7189  -3.6358
    -3.5717  -3.3894  -3.3313  -3.1906  -2.7549  -2.6070  -2.6060  -2.5670
    -2.5382  -2.4769  -2.4002  -2.1030  -2.0960  -2.0636  -1.9591  -1.6665
    -1.5964  -1.4586  -1.3254  -1.3136  -0.4900  -0.3504  -0.1466  -0.0356
     0.0235   0.3319   0.6613   0.9140   1.0096   1.0417   1.0597   1.1081
     1.2238   1.2691   1.2933   1.4683   1.6421   1.6552   1.7451   1.8333

          k = 0.2333 0.5774 0.0000 ( 48580 PWs)   bands (ev):

   -15.7752 -15.6688 -15.5277 -14.8396 -14.5519 -14.5463 -13.9398 -13.9280
   -13.8112 -13.7211 -13.5867 -13.4869 -12.8616 -12.7510 -12.6302 -12.3786
   -11.7218 -11.7031 -11.5378 -10.7646 -10.4625 -10.4445 -10.0450  -9.9891
    -9.9764  -9.7997  -9.7440  -9.6614  -9.3706  -9.0667  -9.0012  -8.8196
    -8.7672  -8.4792  -8.4690  -8.2972  -8.2859  -8.2640  -7.7705  -7.5798
    -7.5664  -7.1206  -7.1154  -7.1028  -6.6875  -6.5951  -6.2177  -6.1649
    -6.1523  -6.0767  -6.0383  -5.3612  -5.3252  -5.2097  -5.2003  -5.1780
    -5.1646  -5.0992  -4.9730  -4.9645  -4.9520  -4.8775  -4.8580  -4.7210
    -4.7087  -4.6743  -4.6645  -4.5132  -4.4625  -4.0895  -4.0591  -3.9966
    -3.9081  -3.8994  -3.8787  -3.7938  -3.7702  -3.7294  -3.7276  -3.6475
    -3.6066  -3.4018  -3.3467  -3.2216  -2.7431  -2.6050  -2.6039  -2.5500
    -2.5439  -2.4483  -2.4101  -2.1223  -2.1157  -2.0569  -1.9320  -1.6832
    -1.6103  -1.4428  -1.3235  -1.3136  -0.4928  -0.3534  -0.1498  -0.0358
     0.0178   0.3300   0.6789   0.9452   1.0232   1.0500   1.0766   1.1398
     1.2245   1.2749   1.3059   1.4869   1.6166   1.6199   1.7212   1.8278

          k = 0.2500 0.5774 0.0000 ( 48562 PWs)   bands (ev):

   -15.7709 -15.6642 -15.5436 -14.8091 -14.5700 -14.5644 -13.9193 -13.9042
   -13.8021 -13.7147 -13.6180 -13.5195 -12.8516 -12.7410 -12.6361 -12.3740
   -11.7149 -11.6963 -11.5592 -10.7319 -10.4811 -10.4632 -10.0374  -9.9846
    -9.9712  -9.8032  -9.7487  -9.6734  -9.3671  -9.0250  -8.9595  -8.8174
    -8.7650  -8.5246  -8.5157  -8.3062  -8.2965  -8.2743  -7.7831  -7.5513
    -7.5377  -7.1547  -7.0850  -7.0799  -6.6499  -6.6348  -6.2462  -6.1934
    -6.1497  -6.0731  -6.0379  -5.3328  -5.2989  -5.1975  -5.1902  -5.1662
    -5.1517  -5.0593  -4.9994  -4.9380  -4.9112  -4.8982  -4.8913  -4.7384
    -4.7259  -4.6923  -4.6821  -4.5295  -4.4818  -4.0707  -4.0367  -3.9873
    -3.8916  -3.8827  -3.8701  -3.7983  -3.7691  -3.7373  -3.7331  -3.6604
    -3.6411  -3.4106  -3.3591  -3.2519  -2.7331  -2.6030  -2.6017  -2.5531
    -2.5338  -2.4286  -2.4063  -2.1420  -2.1356  -2.0495  -1.9046  -1.6998
    -1.6240  -1.4269  -1.3231  -1.3149  -0.4953  -0.3561  -0.1527  -0.0357
     0.0127   0.3284   0.6937   0.9734   1.0385   1.0570   1.0905   1.1645
     1.2317   1.2849   1.3210   1.4995   1.5830   1.5919   1.7044   1.8212

          k = 0.2667 0.5774 0.0000 ( 48562 PWs)   bands (ev):

   -15.7667 -15.6596 -15.5576 -14.7784 -14.5875 -14.5819 -13.9003 -13.8809
   -13.7925 -13.7078 -13.6482 -13.5520 -12.8435 -12.7331 -12.6407 -12.3702
   -11.7075 -11.6890 -11.5803 -10.6988 -10.4994 -10.4816 -10.0296  -9.9818
    -9.9677  -9.8057  -9.7526  -9.6845  -9.3641  -8.9828  -8.9175  -8.8150
    -8.7629  -8.5718  -8.5639  -8.3151  -8.3044  -8.2816  -7.7934  -7.5234
    -7.5095  -7.2061  -7.0506  -7.0455  -6.7057  -6.5821  -6.2759  -6.2230
    -6.1469  -6.0691  -6.0391  -5.3060  -5.2742  -5.1844  -5.1799  -5.1540
    -5.1392  -5.0318  -5.0139  -4.9445  -4.9259  -4.9089  -4.8423  -4.7566
    -4.7433  -4.7101  -4.6996  -4.5478  -4.5033  -4.0543  -4.0165  -3.9768
    -3.8808  -3.8615  -3.8572  -3.8051  -3.7702  -3.7446  -3.7378  -3.6762
    -3.6696  -3.4160  -3.3682  -3.2808  -2.7256  -2.6009  -2.5994  -2.5621
    -2.5198  -2.4350  -2.3748  -2.1617  -2.1555  -2.0426  -1.8773  -1.7163
    -1.6372  -1.4106  -1.3246  -1.3177  -0.4976  -0.3585  -0.1553  -0.0353
     0.0083   0.3267   0.7057   0.9977   1.0539   1.0651   1.0998   1.1739
     1.2529   1.2998   1.3390   1.5031   1.5466   1.5659   1.6969   1.8135

          k = 0.2833 0.5774 0.0000 ( 48550 PWs)   bands (ev):

   -15.7629 -15.6557 -15.5699 -14.7474 -14.6048 -14.5992 -13.8831 -13.8581
   -13.7832 -13.7012 -13.6749 -13.5837 -12.8371 -12.7273 -12.6440 -12.3671
   -11.6998 -11.6815 -11.6005 -10.6657 -10.5174 -10.4998 -10.0217  -9.9802
    -9.9659  -9.8066  -9.7552  -9.6945  -9.3619  -8.9402  -8.8755  -8.8128
    -8.7616  -8.6169  -8.6096  -8.3218  -8.3109  -8.2868  -7.8010  -7.4962
    -7.4818  -7.2573  -7.0176  -7.0126  -6.7612  -6.5295  -6.3040  -6.2507
    -6.1445  -6.0651  -6.0417  -5.2792  -5.2501  -5.1721  -5.1696  -5.1409
    -5.1281  -5.0560  -4.9819  -4.9696  -4.9592  -4.8809  -4.7903  -4.7749
    -4.7598  -4.7278  -4.7168  -4.5673  -4.5264  -4.0405  -3.9987  -3.9658
    -3.8688  -3.8501  -3.8361  -3.8124  -3.7731  -3.7535  -3.7441  -3.7087
    -3.6822  -3.4175  -3.3734  -3.3076  -2.7196  -2.5988  -2.5970  -2.5707
    -2.5068  -2.4442  -2.3399  -2.1813  -2.1750  -2.0382  -1.8504  -1.7326
    -1.6497  -1.3943  -1.3278  -1.3215  -0.4993  -0.3603  -0.1574  -0.0349
     0.0047   0.3254   0.7149   1.0184   1.0628   1.0770   1.1061   1.1711
     1.2841   1.3192   1.3596   1.4973   1.5100   1.5405   1.6987   1.8051

          k = 0.3000 0.5774 0.0000 ( 48566 PWs)   bands (ev):

   -15.7597 -15.6527 -15.5794 -14.7160 -14.6218 -14.6162 -13.8682 -13.8366
   -13.7784 -13.7011 -13.6884 -13.6138 -12.8326 -12.7235 -12.6459 -12.3649
   -11.6916 -11.6738 -11.6198 -10.6326 -10.5348 -10.5178 -10.0144  -9.9797
    -9.9658  -9.8065  -9.7571  -9.7024  -9.3604  -8.8972  -8.8350  -8.8101
    -8.7619  -8.6624  -8.6543  -8.3259  -8.3160  -8.2907  -7.8066  -7.4697
    -7.4548  -7.3082  -6.9865  -6.9813  -6.8167  -6.4778  -6.3316  -6.2776
    -6.1426  -6.0613  -6.0452  -5.2539  -5.2280  -5.1628  -5.1579  -5.1315
    -5.1241  -5.0706  -5.0138  -4.9925  -4.9268  -4.8542  -4.7967  -4.7799
    -4.7454  -4.7356  -4.7299  -4.5884  -4.5516  -4.0297  -3.9849  -3.9558
    -3.8556  -3.8384  -3.8186  -3.8170  -3.7774  -3.7615  -3.7520  -3.7397
    -3.6930  -3.4160  -3.3748  -3.3314  -2.7155  -2.5966  -2.5946  -2.5784
    -2.4958  -2.4527  -2.3046  -2.2004  -2.1942  -2.0334  -1.8246  -1.7487
    -1.6607  -1.3782  -1.3326  -1.3262  -0.5006  -0.3616  -0.1591  -0.0343
     0.0021   0.3244   0.7212   1.0368   1.0674   1.0835   1.1139   1.1633
     1.3173   1.3422   1.3822   1.4738   1.4839   1.5167   1.7062   1.7973

          k = 0.3167 0.5774 0.0000 ( 48554 PWs)   bands (ev):

   -15.7573 -15.6510 -15.5853 -14.6844 -14.6384 -14.6327 -13.8563 -13.8175
   -13.7840 -13.7052 -13.6859 -13.6388 -12.8300 -12.7215 -12.6468 -12.3635
   -11.6834 -11.6671 -11.6369 -10.6003 -10.5507 -10.5353 -10.0085  -9.9795
    -9.9670  -9.8057  -9.7585  -9.7078  -9.3594  -8.8548  -8.8158  -8.7932
    -8.7633  -8.7052  -8.6913  -8.3274  -8.3195  -8.2934  -7.8095  -7.4443
    -7.4283  -7.3583  -6.9571  -6.9518  -6.8716  -6.4292  -6.3577  -6.3021
    -6.1409  -6.0568  -6.0491  -5.2309  -5.2100  -5.1592  -5.1533  -5.1352
    -5.1163  -5.0640  -5.0428  -5.0228  -4.8825  -4.8347  -4.8171  -4.7895
    -4.7620  -4.7485  -4.6817  -4.6073  -4.5763  -4.0221  -3.9766  -3.9484
    -3.8416  -3.8276  -3.8200  -3.8027  -3.7870  -3.7667  -3.7630  -3.7591
    -3.7009  -3.4125  -3.3735  -3.3497  -2.7130  -2.5943  -2.5920  -2.5849
    -2.4870  -2.4597  -2.2694  -2.2188  -2.2127  -2.0313  -1.8011  -1.7644
    -1.6692  -1.3623  -1.3389  -1.3316  -0.5014  -0.3624  -0.1600  -0.0339
     0.0005   0.3238   0.7249   1.0531   1.0700   1.0806   1.1232   1.1547
     1.3457   1.3653   1.4061   1.4407   1.4677   1.4959   1.7139   1.7921

          k = 0.3333 0.5774 0.0000 ( 48552 PWs)   bands (ev):

   -15.7565 -15.6506 -15.5872 -14.6566 -14.6524 -14.6469 -13.8506 -13.8065
   -13.7931 -13.7007 -13.6883 -13.6490 -12.8292 -12.7209 -12.6471 -12.3630
   -11.6781 -11.6652 -11.6450 -10.5808 -10.5555 -10.5504 -10.0061  -9.9789
    -9.9683  -9.8054  -9.7594  -9.7100  -9.3592  -8.8251  -8.8168  -8.7913
    -8.7477  -8.7349  -8.7081  -8.3273  -8.3211  -8.2944  -7.8106  -7.4251
    -7.4028  -7.4023  -6.9315  -6.9242  -6.9232  -6.4011  -6.3731  -6.3159
    -6.1402  -6.0531  -6.0525  -5.2155  -5.2052  -5.1691  -5.1525  -5.1242
    -5.1198  -5.0558  -5.0485  -5.0457  -4.8465  -4.8398  -4.8333  -4.7823
    -4.7751  -4.7567  -4.6514  -4.6137  -4.5981  -4.0191  -3.9741  -3.9457
    -3.8329  -3.8221  -3.8162  -3.8020  -3.7975  -3.7686  -3.7664  -3.7643
    -3.7042  -3.4103  -3.3726  -3.3572  -2.7118  -2.5928  -2.5902  -2.5888
    -2.4827  -2.4627  -2.2406  -2.2305  -2.2304  -2.0307  -1.7867  -1.7754
    -1.6726  -1.3518  -1.3433  -1.3364  -0.5016  -0.3626  -0.1603  -0.0337
    -0.0001   0.3236   0.7261   1.0631   1.0697   1.0760   1.1275   1.1504
     1.3614   1.3734   1.4224   1.4228   1.4603   1.4834   1.7170   1.7907

          k = 0.3167 0.5485 0.0000 ( 48558 PWs)   bands (ev):

   -15.7607 -15.6500 -15.5810 -14.6863 -14.6807 -14.5871 -13.8836 -13.8068
   -13.7934 -13.7153 -13.6574 -13.6298 -12.8322 -12.7227 -12.6471 -12.3650
   -11.7033 -11.6510 -11.6308 -10.6070 -10.5868 -10.4915 -10.0147  -9.9878
    -9.9572  -9.8096  -9.7539  -9.7027  -9.3602  -8.8834  -8.8809  -8.7812
    -8.7283  -8.7053  -8.6420  -8.3317  -8.3120  -8.2890  -7.8067  -7.5110
    -7.3685  -7.3533  -7.0359  -6.8771  -6.8715  -6.4430  -6.3982  -6.2460
    -6.1432  -6.0598  -6.0455  -5.2741  -5.2151  -5.1852  -5.1476  -5.1408
    -5.0834  -5.0566  -5.0292  -5.0030  -4.8905  -4.8779  -4.8167  -4.8103
    -4.7271  -4.7138  -4.6912  -4.6666  -4.5119  -4.0348  -3.9821  -3.9522
    -3.8780  -3.8426  -3.8077  -3.7867  -3.7764  -3.7724  -3.7552  -3.7436
    -3.6890  -3.4207  -3.3613  -3.3421  -2.7151  -2.5981  -2.5869  -2.5843
    -2.4927  -2.4561  -2.2710  -2.2634  -2.1644  -2.0335  -1.8129  -1.7671
    -1.6537  -1.3695  -1.3573  -1.3100  -0.5006  -0.3616  -0.1590  -0.0346
     0.0020   0.3245   0.7216   1.0362   1.0664   1.0802   1.1230   1.1625
     1.3030   1.3668   1.4042   1.4378   1.4483   1.5474   1.7090   1.7907

          k = 0.3000 0.5196 0.0000 ( 48554 PWs)   bands (ev):

   -15.7736 -15.6440 -15.5668 -14.7162 -14.7105 -14.5209 -13.9444 -13.8476
   -13.7840 -13.6977 -13.6123 -13.5955 -12.8404 -12.7274 -12.6489 -12.3710
   -11.7377 -11.6295 -11.6096 -10.6387 -10.6191 -10.4218 -10.0350 -10.0079
    -9.9354  -9.8237  -9.7359  -9.6842  -9.3622  -8.9749  -8.9694  -8.7788
    -8.7220  -8.6156  -8.5525  -8.3415  -8.2898  -8.2715  -7.7941  -7.6092
    -7.3237  -7.3070  -7.1442  -6.8314  -6.8253  -6.4932  -6.4463  -6.1515
    -6.1409  -6.0629  -6.0395  -5.3533  -5.2776  -5.2611  -5.1227  -5.1154
    -5.0405  -5.0249  -4.9907  -4.9566  -4.9383  -4.9229  -4.8411  -4.8385
    -4.7538  -4.7327  -4.6544  -4.6305  -4.4085  -4.0766  -4.0141  -3.9566
    -3.9373  -3.8751  -3.8242  -3.7944  -3.7479  -3.7310  -3.7197  -3.7014
    -3.6560  -3.4323  -3.3324  -3.3145  -2.7231  -2.5991  -2.5822  -2.5792
    -2.5085  -2.4490  -2.3009  -2.2925  -2.0973  -2.0442  -1.8427  -1.7806
    -1.6069  -1.3951  -1.3797  -1.2767  -0.4977  -0.3588  -0.1552  -0.0372
     0.0074   0.3275   0.7085   0.9941   1.0474   1.0699   1.1203   1.1850
     1.2239   1.3308   1.3750   1.4393   1.4473   1.6260   1.6981   1.7912

          k = 0.2833 0.4907 0.0000 ( 48558 PWs)   bands (ev):

   -15.7924 -15.6311 -15.5480 -14.7446 -14.7389 -14.4539 -14.0094 -13.9099
   -13.7640 -13.6725 -13.5640 -13.5538 -12.8520 -12.7349 -12.6539 -12.3812
   -11.7712 -11.6058 -11.5860 -10.6694 -10.6500 -10.3510 -10.0630 -10.0353
    -9.9099  -9.8417  -9.7081  -9.6574  -9.3640  -9.0677  -9.0607  -8.7733
    -8.7150  -8.5208  -8.4604  -8.3544  -8.2568  -8.2422  -7.7735  -7.7061
    -7.2818  -7.2639  -7.2515  -6.7921  -6.7854  -6.5424  -6.4952  -6.1644
    -6.0647  -6.0351  -6.0330  -5.4383  -5.3549  -5.3454  -5.1024  -5.0928
    -5.0162  -4.9933  -4.9821  -4.9710  -4.9282  -4.9106  -4.8655  -4.8601
    -4.8141  -4.8002  -4.5926  -4.5390  -4.3050  -4.1302  -4.0618  -3.9960
    -3.9799  -3.8910  -3.8398  -3.8163  -3.7036  -3.6818  -3.6735  -3.6501
    -3.6197  -3.4355  -3.2967  -3.2812  -2.7347  -2.5934  -2.5772  -2.5739
    -2.5256  -2.4469  -2.3268  -2.3174  -2.0607  -2.0315  -1.8713  -1.8020
    -1.5513  -1.4251  -1.4066  -1.2430  -0.4933  -0.3546  -0.1492  -0.0412
     0.0144   0.3327   0.6869   0.9450   1.0215   1.0538   1.1054   1.1406
     1.2127   1.2970   1.3432   1.4232   1.4381   1.6715   1.6898   1.7930

          k = 0.2667 0.4619 0.0000 ( 48580 PWs)   bands (ev):

   -15.8142 -15.6132 -15.5266 -14.7716 -14.7659 -14.3856 -14.0750 -13.9749
   -13.7431 -13.6476 -13.5146 -13.5075 -12.8660 -12.7451 -12.6626 -12.3959
   -11.8029 -11.5801 -11.5604 -10.6988 -10.6795 -10.2797 -10.0969 -10.0688
    -9.8831  -9.8605  -9.6732  -9.6239  -9.3655  -9.1594  -9.1499  -8.7668
    -8.7073  -8.4233  -8.3734  -8.3649  -8.2134  -8.2005  -7.8016  -7.7451
    -7.3575  -7.2432  -7.2239  -6.7589  -6.7515  -6.5877  -6.5408  -6.1805
    -6.0633  -6.0335  -5.9317  -5.5272  -5.4360  -5.4332  -5.0976  -5.0782
    -5.0469  -5.0356  -4.9492  -4.9436  -4.9167  -4.9084  -4.8828  -4.8660
    -4.8471  -4.8315  -4.5325  -4.4519  -4.2111  -4.1844  -4.1142  -4.0482
    -4.0335  -3.8824  -3.8556  -3.8390  -3.6539  -3.6311  -3.6200  -3.5952
    -3.5840  -3.4314  -3.2577  -3.2446  -2.7496  -2.5802  -2.5719  -2.5685
    -2.5445  -2.4500  -2.3485  -2.3380  -2.0802  -1.9720  -1.8973  -1.8249
    -1.4959  -1.4584  -1.4351  -1.2095  -0.4877  -0.3495  -0.1422  -0.0468
     0.0212   0.3397   0.6568   0.8923   0.9968   1.0286   1.0426   1.1021
     1.2233   1.2776   1.3148   1.3951   1.4193   1.6806   1.6858   1.7938

          k = 0.2500 0.4330 0.0000 ( 48552 PWs)   bands (ev):

   -15.8366 -15.5917 -15.5028 -14.7969 -14.7911 -14.3164 -14.1405 -14.0402
   -13.7213 -13.6232 -13.4650 -13.4588 -12.8811 -12.7581 -12.6749 -12.4151
   -11.8328 -11.5525 -11.5328 -10.7267 -10.7074 -10.2089 -10.1356 -10.1070
    -9.8837  -9.8493  -9.6315  -9.5840  -9.3685  -9.2482  -9.2329  -8.7603
    -8.6994  -8.3883  -8.3258  -8.2795  -8.1613  -8.1443  -7.8949  -7.7106
    -7.4621  -7.2079  -7.1875  -6.7311  -6.7230  -6.6280  -6.5825  -6.1979
    -6.0638  -6.0360  -5.8339  -5.6153  -5.5267  -5.5148  -5.1367  -5.1059
    -5.0461  -5.0430  -4.9957  -4.9791  -4.9288  -4.9267  -4.8651  -4.8471
    -4.8086  -4.7850  -4.4774  -4.3774  -4.2465  -4.1707  -4.1057  -4.0963
    -4.0913  -3.8729  -3.8644  -3.8585  -3.5992  -3.5778  -3.5620  -3.5463
    -3.5377  -3.4202  -3.2163  -3.2054  -2.7660  -2.5692  -2.5646  -2.5603
    -2.5578  -2.4581  -2.3662  -2.3545  -2.1059  -1.9391  -1.9005  -1.8450
    -1.4975  -1.4816  -1.4216  -1.1755  -0.4813  -0.3439  -0.1345  -0.0540
     0.0262   0.3484   0.6196   0.8393   0.9447   0.9752   1.0089   1.0808
     1.2121   1.2741   1.2949   1.3595   1.3970   1.6687   1.6838   1.7925

          k = 0.2333 0.4041 0.0000 ( 48586 PWs)   bands (ev):

   -15.8590 -15.5676 -15.4772 -14.8206 -14.8147 -14.2468 -14.2054 -14.1056
   -13.6983 -13.5984 -13.4157 -13.4093 -12.8972 -12.7740 -12.6909 -12.4391
   -11.8610 -11.5232 -11.5034 -10.7529 -10.7336 -10.1827 -10.1592 -10.1244
    -9.9038  -9.8174  -9.5868  -9.5418  -9.3838  -9.3336  -9.2983  -8.7532
    -8.6907  -8.4080  -8.2299  -8.1974  -8.1005  -8.0722  -7.9866  -7.6710
    -7.5647  -7.1762  -7.1546  -6.7146  -6.7047  -6.6583  -6.6204  -6.2164
    -6.0684  -6.0449  -5.7677  -5.6816  -5.6125  -5.5951  -5.1905  -5.1558
    -5.0807  -5.0609  -5.0291  -5.0264  -4.9498  -4.9472  -4.8158  -4.7948
    -4.7547  -4.7327  -4.4337  -4.3520  -4.2854  -4.1968  -4.1612  -4.1215
    -4.0200  -3.8895  -3.8770  -3.8396  -3.5405  -3.5241  -3.5150  -3.5009
    -3.4799  -3.4024  -3.1742  -3.1652  -2.7850  -2.5890  -2.5594  -2.5561
    -2.5269  -2.4712  -2.3799  -2.3672  -2.1395  -1.9579  -1.8836  -1.8356
    -1.5363  -1.5169  -1.3640  -1.1408  -0.4750  -0.3386  -0.1279  -0.0633
     0.0276   0.3576   0.5768   0.7887   0.8472   0.9529   0.9846   1.0594
     1.1913   1.2594   1.2932   1.3209   1.3755   1.6515   1.6739   1.7872

          k = 0.2167 0.3753 0.0000 ( 48598 PWs)   bands (ev):

   -15.8804 -15.5410 -15.4495 -14.8427 -14.8368 -14.2712 -14.1759 -14.1693
   -13.6743 -13.5731 -13.3671 -13.3601 -12.9137 -12.7923 -12.7099 -12.4678
   -11.8873 -11.4920 -11.4721 -10.7776 -10.7583 -10.2284 -10.2017 -10.0575
    -9.9225  -9.7827  -9.5420  -9.5027  -9.4301  -9.4080  -9.3210  -8.7482
    -8.6838  -8.4298  -8.1368  -8.1207  -8.0772  -8.0275  -7.9853  -7.6657
    -7.6254  -7.1477  -7.1250  -6.7295  -6.7009  -6.6587  -6.6435  -6.2341
    -6.0794  -6.0618  -5.8201  -5.7255  -5.6763  -5.6031  -5.2428  -5.2033
    -5.1704  -5.1455  -5.0148  -5.0122  -4.9707  -4.9674  -4.7631  -4.7389
    -4.6987  -4.6790  -4.4126  -4.3948  -4.3258  -4.2255  -4.1618  -4.1261
    -3.9548  -3.9079  -3.8698  -3.8155  -3.4857  -3.4779  -3.4718  -3.4369
    -3.4216  -3.3791  -3.1320  -3.1245  -2.8039  -2.6116  -2.5529  -2.5497
    -2.4873  -2.4855  -2.3902  -2.3765  -2.1775  -1.9816  -1.9011  -1.7886
    -1.5777  -1.5570  -1.3033  -1.1060  -0.4690  -0.3341  -0.1237  -0.0744
     0.0239   0.3668   0.5312   0.7425   0.7447   0.9252   0.9679   1.0381
     1.1660   1.2433   1.2723   1.3036   1.3569   1.6252   1.6600   1.7759

          k = 0.2000 0.3464 0.0000 ( 48594 PWs)   bands (ev):

   -15.9006 -15.5124 -15.4202 -14.8633 -14.8573 -14.3352 -14.2349 -14.1031
   -13.6494 -13.5471 -13.3195 -13.3118 -12.9307 -12.8125 -12.7316 -12.5009
   -11.9117 -11.4589 -11.4390 -10.8005 -10.7813 -10.2783 -10.2516  -9.9846
    -9.9398  -9.7458  -9.5367  -9.5213  -9.4525  -9.4170  -9.3163  -8.7444
    -8.6772  -8.4531  -8.1652  -8.0502  -8.0433  -7.9439  -7.8889  -7.7643
    -7.5743  -7.1226  -7.0989  -6.7601  -6.7196  -6.6480  -6.6404  -6.2513
    -6.1004  -6.0889  -5.9062  -5.8154  -5.7565  -5.5169  -5.2908  -5.2649
    -5.2468  -5.2346  -5.0006  -4.9989  -4.9901  -4.9844  -4.7107  -4.6837
    -4.6423  -4.6251  -4.4574  -4.4127  -4.3809  -4.2874  -4.1047  -4.0996
    -3.9426  -3.9268  -3.8139  -3.7891  -3.4573  -3.4259  -3.4129  -3.3700
    -3.3636  -3.3471  -3.0906  -3.0836  -2.8232  -2.6344  -2.5465  -2.5428
    -2.5057  -2.4337  -2.3970  -2.3825  -2.2203  -2.0051  -1.9220  -1.7416
    -1.6205  -1.5982  -1.2419  -1.0705  -0.4639  -0.3310  -0.1237  -0.0869
     0.0139   0.3746   0.4856   0.6378   0.7020   0.8927   0.9579   1.0168
     1.1362   1.2308   1.2338   1.3031   1.3416   1.5856   1.6436   1.7573

          k = 0.1833 0.3175 0.0000 ( 48596 PWs)   bands (ev):

   -15.9196 -15.4818 -15.3893 -14.8822 -14.8761 -14.3984 -14.2983 -14.0314
   -13.6235 -13.5202 -13.2736 -13.2649 -12.9482 -12.8342 -12.7554 -12.5385
   -11.9342 -11.4243 -11.4043 -10.8218 -10.8025 -10.3304 -10.3040  -9.9561
    -9.9110  -9.7067  -9.5971  -9.5892  -9.4078  -9.3698  -9.3024  -8.7428
    -8.6719  -8.4774  -8.2505  -7.9719  -7.9628  -7.8643  -7.8466  -7.7866
    -7.5199  -7.1008  -7.0762  -6.7899  -6.7462  -6.6371  -6.6279  -6.2682
    -6.1365  -6.1257  -5.9929  -5.9083  -5.8364  -5.4276  -5.3673  -5.3333
    -5.3259  -5.2757  -5.0094  -5.0071  -4.9831  -4.9786  -4.6600  -4.6317
    -4.5854  -4.5705  -4.5167  -4.4483  -4.4271  -4.3460  -4.0548  -4.0467
    -3.9567  -3.9439  -3.7616  -3.7417  -3.4318  -3.3871  -3.3468  -3.3090
    -3.3057  -3.2989  -3.0510  -3.0427  -2.8422  -2.6565  -2.5433  -2.5357
    -2.5226  -2.4018  -2.3864  -2.3693  -2.2667  -2.0278  -1.9429  -1.7062
    -1.6631  -1.6334  -1.1814  -1.0346  -0.4602  -0.3299  -0.1300  -0.0999
    -0.0029   0.3797   0.4429   0.5267   0.6674   0.8583   0.9493   0.9954
     1.1045   1.1940   1.2243   1.3008   1.3295   1.5315   1.6222   1.7316

          k = 0.1667 0.2887 0.0000 ( 48552 PWs)   bands (ev):

   -15.9370 -15.4495 -15.3567 -14.8994 -14.8931 -14.4606 -14.3606 -13.9585
   -13.5965 -13.4924 -13.2299 -13.2202 -12.9665 -12.8567 -12.7807 -12.5802
   -11.9547 -11.3878 -11.3677 -10.8411 -10.8218 -10.3843 -10.3584  -9.9712
    -9.8375  -9.6698  -9.6617  -9.6594  -9.3496  -9.3139  -9.2820  -8.7441
    -8.6679  -8.5022  -8.3334  -7.9562  -7.8942  -7.8801  -7.7466  -7.6813
    -7.4613  -7.0822  -7.0568  -6.8160  -6.7712  -6.6260  -6.6150  -6.2840
    -6.1896  -6.1729  -6.0723  -5.9971  -5.9132  -5.4700  -5.4328  -5.3548
    -5.3437  -5.2977  -5.0256  -5.0227  -4.9679  -4.9644  -4.6141  -4.6032
    -4.5541  -4.5326  -4.5155  -4.5022  -4.4590  -4.4005  -4.0011  -3.9957
    -3.9717  -3.9551  -3.7324  -3.6713  -3.4074  -3.3540  -3.2807  -3.2611
    -3.2502  -3.2300  -3.0146  -3.0025  -2.8599  -2.6771  -2.5569  -2.5298
    -2.5245  -2.4024  -2.3861  -2.3158  -2.2968  -2.0497  -1.9630  -1.7184
    -1.7031  -1.6290  -1.1211  -0.9980  -0.4586  -0.3314  -0.1432  -0.1137
    -0.0260   0.3796   0.4069   0.4117   0.6374   0.8230   0.9328   0.9775
     1.0749   1.1609   1.2145   1.2959   1.3205   1.4708   1.5901   1.6992

          k = 0.1500 0.2598 0.0000 ( 48554 PWs)   bands (ev):

   -15.9528 -15.4155 -15.3226 -14.9153 -14.9087 -14.5217 -14.4219 -13.8853
   -13.5685 -13.4635 -13.1894 -13.1781 -12.9857 -12.8795 -12.8066 -12.6256
   -11.9733 -11.3496 -11.3294 -10.8588 -10.8395 -10.4394 -10.4139  -9.9849
    -9.7661  -9.7311  -9.7261  -9.6221  -9.2887  -9.2570  -9.2557  -8.7499
    -8.6658  -8.5266  -8.4139  -8.0494  -7.8143  -7.7971  -7.6396  -7.5729
    -7.3995  -7.0670  -7.0408  -6.8376  -6.7922  -6.6177  -6.6053  -6.2989
    -6.2568  -6.2329  -6.1478  -6.0852  -5.9922  -5.5756  -5.5352  -5.3701
    -5.3086  -5.2661  -5.0413  -5.0381  -4.9557  -4.9526  -4.6528  -4.5725
    -4.5629  -4.5207  -4.4920  -4.4724  -4.4615  -4.4504  -3.9996  -3.9812
    -3.9439  -3.9262  -3.7024  -3.6028  -3.3847  -3.3237  -3.2180  -3.2114
    -3.1947  -3.1626  -2.9828  -2.9634  -2.8733  -2.6954  -2.5800  -2.5255
    -2.5189  -2.4006  -2.3845  -2.3645  -2.2141  -2.0712  -1.9828  -1.7602
    -1.7462  -1.5961  -1.0622  -0.9611  -0.4594  -0.3360  -0.1615  -0.1299
    -0.0541   0.2932   0.3641   0.3897   0.6098   0.7869   0.9006   0.9635
     1.0504   1.1339   1.2013   1.2886   1.3105   1.4188   1.5498   1.6726

          k = 0.1333 0.2309 0.0000 ( 48564 PWs)   bands (ev):

   -15.9671 -15.3797 -15.2870 -14.9296 -14.9227 -14.5817 -14.4821 -13.8121
   -13.5399 -13.4340 -13.1530 -13.1395 -13.0056 -12.9020 -12.8324 -12.6746
   -11.9901 -11.3098 -11.2895 -10.8746 -10.8554 -10.4953 -10.4703  -9.9976
    -9.7941  -9.7895  -9.6902  -9.5772  -9.2296  -9.2256  -9.1983  -8.7615
    -8.6663  -8.5499  -8.4910  -8.1411  -7.7321  -7.7125  -7.5299  -7.4634
    -7.3346  -7.0548  -7.0276  -6.8540  -6.8079  -6.6107  -6.5971  -6.3333
    -6.3177  -6.2987  -6.2218  -6.1708  -6.0717  -5.6817  -5.6387  -5.3750
    -5.3093  -5.1932  -5.0552  -5.0517  -4.9433  -4.9406  -4.7116  -4.6306
    -4.5264  -4.5174  -4.4960  -4.4763  -4.4222  -4.4109  -4.0181  -3.9960
    -3.9079  -3.8601  -3.6719  -3.5414  -3.3657  -3.2944  -3.1673  -3.1573
    -3.1392  -3.1025  -2.9573  -2.9261  -2.8765  -2.7104  -2.6032  -2.5238
    -2.5148  -2.4269  -2.3893  -2.3726  -2.1232  -2.0920  -2.0020  -1.8049
    -1.7915  -1.5620  -1.0047  -0.9237  -0.4631  -0.3441  -0.1826  -0.1501
    -0.0854   0.1719   0.3412   0.3841   0.5817   0.7498   0.8562   0.9426
     1.0330   1.1156   1.1848   1.2800   1.2931   1.3910   1.5170   1.6573

          k = 0.1167 0.2021 0.0000 ( 48596 PWs)   bands (ev):

   -15.9798 -15.3424 -15.2500 -14.9424 -14.9348 -14.6403 -14.5411 -13.7386
   -13.5105 -13.4036 -13.1232 -13.1055 -13.0249 -12.9239 -12.8567 -12.7262
   -12.0048 -11.2684 -11.2480 -10.8888 -10.8695 -10.5515 -10.5269 -10.0088
    -9.8496  -9.8455  -9.6186  -9.5306  -9.1950  -9.1678  -9.1415  -8.7791
    -8.6689  -8.5711  -8.5643  -8.2282  -7.6475  -7.6258  -7.4196  -7.3549
    -7.2663  -7.0454  -7.0172  -6.8650  -6.8182  -6.6050  -6.5901  -6.4139
    -6.3844  -6.3251  -6.2957  -6.2533  -6.1520  -5.7908  -5.7456  -5.3697
    -5.3011  -5.1278  -5.0680  -5.0642  -4.9333  -4.9308  -4.7705  -4.6899
    -4.5545  -4.5357  -4.4778  -4.4352  -4.3757  -4.3643  -4.0400  -4.0146
    -3.8774  -3.7918  -3.6408  -3.4859  -3.3482  -3.2654  -3.1246  -3.1068
    -3.0851  -3.0601  -2.9320  -2.8918  -2.8654  -2.7209  -2.6236  -2.5272
    -2.5147  -2.4773  -2.3778  -2.3612  -2.1125  -2.0274  -2.0199  -1.8493
    -1.8362  -1.5308  -0.9489  -0.8861  -0.4701  -0.3560  -0.2048  -0.1742
    -0.1179   0.0488   0.3236   0.3782   0.5509   0.7122   0.8042   0.9087
     1.0238   1.1080   1.1636   1.2708   1.2795   1.3834   1.4998   1.6494

          k = 0.1000 0.1732 0.0000 ( 48574 PWs)   bands (ev):

   -15.9908 -15.3036 -15.2119 -14.9537 -14.9451 -14.6973 -14.5985 -13.6654
   -13.4803 -13.3723 -13.1066 -13.0786 -13.0383 -12.9439 -12.8782 -12.7793
   -12.0176 -11.2253 -11.2048 -10.9010 -10.8818 -10.6078 -10.5836 -10.0182
    -9.9002  -9.8963  -9.5477  -9.4822  -9.1584  -9.1120  -9.0863  -8.8028
    -8.6739  -8.6322  -8.5896  -8.3139  -7.5609  -7.5373  -7.3074  -7.2480
    -7.1913  -7.0383  -7.0089  -6.8715  -6.8236  -6.6020  -6.5859  -6.4942
    -6.4643  -6.3802  -6.3418  -6.3217  -6.2339  -5.9003  -5.8536  -5.3555
    -5.2851  -5.0793  -5.0754  -5.0669  -4.9236  -4.9215  -4.8276  -4.7473
    -4.5817  -4.5700  -4.4371  -4.3947  -4.3315  -4.3199  -4.0603  -4.0320
    -3.8526  -3.7241  -3.6088  -3.4338  -3.3322  -3.2359  -3.0943  -3.0630
    -3.0444  -3.0314  -2.8964  -2.8637  -2.8438  -2.7266  -2.6382  -2.5478
    -2.5221  -2.5068  -2.3604  -2.3446  -2.1324  -2.0381  -1.9406  -1.8912
    -1.8671  -1.5032  -0.8951  -0.8478  -0.4802  -0.3717  -0.2268  -0.2009
    -0.1498  -0.0747   0.3123   0.3712   0.5161   0.6752   0.7487   0.8661
     1.0223   1.1063   1.1422   1.2616   1.2821   1.3828   1.4957   1.6475

          k = 0.0833 0.1443 0.0000 ( 48548 PWs)   bands (ev):

   -16.0001 -15.2635 -15.1730 -14.9636 -14.9532 -14.7525 -14.6544 -13.5930
   -13.4497 -13.3404 -13.1118 -13.0629 -13.0380 -12.9584 -12.8957 -12.8317
   -12.0284 -11.1808 -11.1602 -10.9112 -10.8921 -10.6639 -10.6401 -10.0250
    -9.9433  -9.9396  -9.4782  -9.4323  -9.1188  -9.0653  -9.0327  -8.8313
    -8.6921  -8.6824  -8.6075  -8.3959  -7.4724  -7.4471  -7.1949  -7.1510
    -7.1038  -7.0325  -7.0016  -6.8723  -6.8222  -6.6021  -6.5878  -6.5676
    -6.5451  -6.4579  -6.4137  -6.3388  -6.3168  -6.0115  -5.9640  -5.3345
    -5.2633  -5.0884  -5.0832  -5.0136  -4.9147  -4.9128  -4.8826  -4.8032
    -4.6055  -4.5989  -4.3971  -4.3553  -4.2936  -4.2819  -4.0852  -4.0544
    -3.8328  -3.6589  -3.5781  -3.3915  -3.3200  -3.2081  -3.0884  -3.0247
    -3.0201  -2.9930  -2.8630  -2.8468  -2.8130  -2.7230  -2.6424  -2.5857
    -2.5324  -2.5167  -2.3387  -2.3240  -2.1518  -2.0546  -1.9479  -1.9331
    -1.8003  -1.4796  -0.8440  -0.8099  -0.4937  -0.3908  -0.2475  -0.2279
    -0.1978  -0.1786   0.3067   0.3636   0.4784   0.6402   0.6941   0.8223
     1.0273   1.0994   1.1331   1.2537   1.2974   1.3842   1.4982   1.6516

          k = 0.0667 0.1155 0.0000 ( 48555 PWs)   bands (ev):

   -16.0077 -15.2222 -15.1340 -14.9726 -14.9590 -14.8053 -14.7085 -13.5221
   -13.4189 -13.3079 -13.1321 -13.0645 -13.0352 -12.9621 -12.9095 -12.8793
   -12.0373 -11.1349 -11.1143 -10.9196 -10.9006 -10.7195 -10.6961 -10.0316
    -9.9788  -9.9752  -9.4111  -9.3813  -9.0819  -9.0338  -8.9799  -8.8602
    -8.7386  -8.6946  -8.6255  -8.4754  -7.3826  -7.3556  -7.0837  -7.0677
    -7.0270  -7.0051  -6.9903  -6.8678  -6.8143  -6.6604  -6.6359  -6.5913
    -6.5775  -6.5335  -6.4868  -6.4003  -6.3493  -6.1225  -6.0762  -5.3076
    -5.2368  -5.0967  -5.0894  -4.9712  -4.9364  -4.9070  -4.9056  -4.8573
    -4.6256  -4.6223  -4.3607  -4.3199  -4.2617  -4.2497  -4.1092  -4.0763
    -3.8175  -3.5988  -3.5484  -3.3564  -3.3076  -3.1819  -3.0993  -2.9933
    -2.9911  -2.9629  -2.8523  -2.8431  -2.7758  -2.7061  -2.6371  -2.6151
    -2.5444  -2.5267  -2.3135  -2.2998  -2.1704  -2.0698  -1.9874  -1.9759
    -1.6982  -1.4602  -0.7963  -0.7724  -0.5108  -0.4130  -0.3159  -0.2662
    -0.2527  -0.2052   0.3059   0.3557   0.4402   0.6087   0.6443   0.7826
     1.0365   1.0877   1.1352   1.2471   1.3199   1.3866   1.5014   1.6617

          k = 0.0500 0.0866 0.0000 ( 48567 PWs)   bands (ev):

   -16.0136 -15.1799 -15.0960 -14.9817 -14.9613 -14.8543 -14.7603 -13.4542
   -13.3881 -13.2750 -13.1568 -13.0821 -13.0478 -12.9559 -12.9205 -12.9121
   -12.0441 -11.0876 -11.0670 -10.9261 -10.9074 -10.7745 -10.7514 -10.0366
   -10.0076 -10.0040  -9.3475  -9.3297  -9.0550  -9.0255  -8.9305  -8.8799
    -8.7645  -8.7097  -8.6438  -8.5503  -7.2919  -7.2635  -7.0268  -6.9969
    -6.9843  -6.9657  -6.8917  -6.8575  -6.7998  -6.7412  -6.7166  -6.6132
    -6.5925  -6.5752  -6.5487  -6.4825  -6.3632  -6.2284  -6.1879  -5.2761
    -5.2076  -5.1045  -5.0925  -4.9860  -4.9388  -4.9097  -4.9015  -4.9012
    -4.6416  -4.6402  -4.3263  -4.2869  -4.2372  -4.2245  -4.1335  -4.0990
    -3.8061  -3.5469  -3.5206  -3.3266  -3.2997  -3.1585  -3.1138  -2.9680
    -2.9653  -2.9421  -2.8626  -2.8532  -2.7401  -2.6787  -2.6316  -2.6202
    -2.5584  -2.5391  -2.2858  -2.2733  -2.1875  -2.0832  -2.0272  -2.0172
    -1.5985  -1.4450  -0.7528  -0.7361  -0.5313  -0.4371  -0.4255  -0.2820
    -0.2741  -0.2267   0.3092   0.3475   0.4052   0.5822   0.6027   0.7497
     1.0477   1.0785   1.1392   1.2419   1.3454   1.3896   1.5027   1.6753

          k = 0.0333 0.0577 0.0000 ( 48513 PWs)   bands (ev):

   -16.0179 -15.1372 -15.0623 -14.9934 -14.9581 -14.8966 -14.8087 -13.3931
   -13.3570 -13.2420 -13.1798 -13.1081 -13.0826 -12.9467 -12.9309 -12.9232
   -12.0488 -11.0390 -11.0189 -10.9302 -10.9122 -10.8283 -10.8057 -10.0405
   -10.0278 -10.0241  -9.2893  -9.2791  -9.0520  -9.0412  -8.8856  -8.8756
    -8.7668  -8.7271  -8.6624  -8.6167  -7.2008  -7.1715  -7.0206  -6.9873
    -6.9152  -6.8627  -6.8528  -6.8157  -6.8010  -6.7862  -6.7628  -6.6718
    -6.6271  -6.5873  -6.5671  -6.5591  -6.3995  -6.3167  -6.2900  -5.2414
    -5.1790  -5.1144  -5.0909  -5.0289  -4.9574  -4.9143  -4.8978  -4.8972
    -4.6532  -4.6527  -4.2930  -4.2563  -4.2205  -4.2060  -4.1579  -4.1227
    -3.7982  -3.5064  -3.4964  -3.3058  -3.2938  -3.1403  -3.1234  -2.9474
    -2.9456  -2.9285  -2.8798  -2.8745  -2.7087  -2.6518  -2.6270  -2.6074
    -2.5723  -2.5535  -2.2576  -2.2465  -2.2015  -2.0939  -2.0638  -2.0553
    -1.5112  -1.4341  -0.7141  -0.7032  -0.5537  -0.5193  -0.4601  -0.2940
    -0.2905  -0.2426   0.3155   0.3396   0.3766   0.5621   0.5714   0.7254
     1.0582   1.0726   1.1424   1.2381   1.3701   1.3929   1.5024   1.6854

          k = 0.0167 0.0289 0.0000 ( 48517 PWs)   bands (ev):

   -16.0206 -15.0961 -15.0390 -15.0125 -14.9462 -14.9252 -14.8508 -13.3518
   -13.3238 -13.2099 -13.1932 -13.1373 -13.1285 -12.9394 -12.9353 -12.9271
   -12.0517 -10.9898 -10.9723 -10.9303 -10.9162 -10.8797 -10.8585 -10.0436
   -10.0405 -10.0363  -9.2430  -9.2343  -9.0711  -9.0692  -8.8497  -8.8490
    -8.7576  -8.7463  -8.6823  -8.6708  -7.1106  -7.0834  -7.0144  -6.9854
    -6.9223  -6.8919  -6.8404  -6.8167  -6.7627  -6.7397  -6.7170  -6.6811
    -6.6576  -6.6407  -6.5869  -6.5629  -6.4795  -6.4183  -6.3277  -5.2053
    -5.1574  -5.1312  -5.0805  -5.0584  -4.9996  -4.8990  -4.8957  -4.8954
    -4.6602  -4.6601  -4.2617  -4.2313  -4.2144  -4.1922  -4.1766  -4.1444
    -3.7936  -3.4830  -3.4778  -3.2961  -3.2947  -3.1302  -3.1273  -2.9316
    -2.9311  -2.9219  -2.8990  -2.8976  -2.6833  -2.6330  -2.6229  -2.5952
    -2.5805  -2.5689  -2.2326  -2.2253  -2.2090  -2.1018  -2.0923  -2.0867
    -1.4486  -1.4276  -0.6832  -0.6787  -0.5855  -0.5757  -0.4784  -0.3017
    -0.3008  -0.2526   0.3239   0.3329   0.3560   0.5496   0.5519   0.7105
     1.0657   1.0695   1.1440   1.2359   1.3888   1.3952   1.5013   1.6804

          k = 0.0000 0.0000 0.0000 ( 48515 PWs)   bands (ev):

   -16.0213 -15.0701 -15.0312 -15.0312 -14.9348 -14.9348 -14.8723 -13.3386
   -13.3060 -13.1890 -13.1890 -13.1584 -13.1584 -12.9364 -12.9364 -12.9286
   -12.0527 -10.9487 -10.9487 -10.9316 -10.9076 -10.9076 -10.9064 -10.0453
   -10.0452 -10.0403  -9.2228  -9.2130  -9.0852  -9.0852  -8.8315  -8.8315
    -8.7550  -8.7550  -8.6956  -8.6914  -7.0371  -7.0371  -7.0072  -6.9768
    -6.9703  -6.9702  -6.8030  -6.8030  -6.7510  -6.7099  -6.7099  -6.7004
    -6.6714  -6.5959  -6.5959  -6.5338  -6.5337  -6.5108  -6.3336  -5.1804
    -5.1499  -5.1499  -5.0682  -5.0682  -5.0229  -4.8956  -4.8953  -4.8952
    -4.6626  -4.6626  -4.2419  -4.2202  -4.2202  -4.1824  -4.1824  -4.1582
    -3.7922  -3.4759  -3.4704  -3.2914  -3.2913  -3.1276  -3.1276  -2.9208
    -2.9183  -2.9183  -2.9153  -2.9153  -2.6715  -2.6254  -2.6253  -2.5847
[...]
    -9.9911  -9.9044  -9.4712  -9.4648  -9.1159  -9.1141  -8.9309  -8.9295
    -8.7010  -8.6989  -8.4626  -8.4594  -7.5442  -7.2925  -7.2871  -7.2775
    -7.0716  -7.0547  -6.9261  -6.9228  -6.7440  -6.7374  -6.6160  -6.6042
    -6.4677  -6.3690  -6.3651  -6.2982  -6.2274  -6.2090  -5.8688  -5.3421
    -5.2244  -5.1960  -4.9905  -4.9890  -4.9563  -4.9410  -4.8787  -4.7797
    -4.5978  -4.5970  -4.4013  -4.3670  -4.3381  -4.1807  -4.1803  -4.0163
    -3.8365  -3.6339  -3.6322  -3.4009  -3.3242  -3.1550  -3.1323  -3.0455
    -3.0208  -3.0010  -2.8625  -2.8534  -2.8148  -2.6769  -2.6638  -2.6013
    -2.5889  -2.4459  -2.3876  -2.2374  -2.2349  -1.9833  -1.9824  -1.9232
    -1.8199  -1.4824  -0.8432  -0.8292  -0.4893  -0.3863  -0.2404  -0.2265
    -0.1779  -0.1704   0.2941   0.3860   0.4777   0.6360   0.7158   0.8306
     1.0306   1.0997   1.1299   1.2550   1.3075   1.3678   1.5032   1.6364

          k = 0.0000 0.2021 0.0000 ( 48561 PWs)   bands (ev):

   -15.9901 -15.3230 -15.1339 -15.1028 -14.7919 -14.7735 -14.5811 -13.6100
   -13.6036 -13.2230 -13.1975 -13.1193 -13.0003 -12.9612 -12.8202 -12.8114
   -12.0169 -11.2706 -11.0811 -11.0727 -10.7152 -10.7119 -10.5496  -9.9768
    -9.9731  -9.8564  -9.5235  -9.5171  -9.1551  -9.1529  -8.9564  -8.9545
    -8.6626  -8.6599  -8.4127  -8.4094  -7.6299  -7.3892  -7.3415  -7.3358
    -7.1129  -7.0977  -6.9839  -6.9806  -6.7024  -6.6952  -6.5735  -6.5621
    -6.3928  -6.3512  -6.2937  -6.2252  -6.1737  -6.1598  -5.7568  -5.3573
    -5.2360  -5.2089  -5.0227  -5.0205  -4.9234  -4.9105  -4.8725  -4.7262
    -4.5744  -4.5737  -4.4375  -4.4111  -4.3722  -4.1886  -4.1879  -3.9865
    -3.8541  -3.6791  -3.6777  -3.4385  -3.3324  -3.1642  -3.1336  -3.0805
    -3.0573  -3.0367  -2.8833  -2.8722  -2.8317  -2.6824  -2.6814  -2.5820
    -2.5602  -2.4192  -2.4143  -2.2415  -2.2396  -1.9611  -1.9502  -1.9255
    -1.8633  -1.5021  -0.8821  -0.8686  -0.4769  -0.3690  -0.2206  -0.2053
    -0.1487  -0.0690   0.2945   0.3974   0.5088   0.6598   0.7722   0.8670
     1.0313   1.1105   1.1304   1.2617   1.3049   1.3578   1.5061   1.6194

          k = 0.0000 0.2309 0.0000 ( 48579 PWs)   bands (ev):

   -15.9806 -15.3615 -15.1489 -15.1199 -14.7568 -14.7408 -14.5272 -13.6621
   -13.6565 -13.2207 -13.1936 -13.1558 -13.0011 -12.9646 -12.7811 -12.7725
   -12.0058 -11.3157 -11.0975 -11.0895 -10.6805 -10.6769 -10.4968  -9.9560
    -9.9522  -9.8029  -9.5760  -9.5697  -9.1951  -9.1924  -8.9883  -8.9860
    -8.6185  -8.6154  -8.3621  -8.3586  -7.7136  -7.5004  -7.3910  -7.3861
    -7.1522  -7.1384  -7.0415  -7.0384  -6.6611  -6.6537  -6.5284  -6.5173
    -6.3482  -6.3081  -6.2210  -6.1561  -6.1227  -6.1097  -5.6435  -5.3633
    -5.2467  -5.2198  -5.0593  -5.0567  -4.8894  -4.8795  -4.8652  -4.6714
    -4.5476  -4.5471  -4.4778  -4.4579  -4.4042  -4.1997  -4.1981  -3.9547
    -3.8758  -3.7259  -3.7247  -3.4841  -3.3440  -3.1816  -3.1381  -3.1174
    -3.0992  -3.0752  -2.9064  -2.8963  -2.8436  -2.7019  -2.6935  -2.5505
    -2.5261  -2.4489  -2.3815  -2.2461  -2.2447  -2.0231  -1.9165  -1.9107
    -1.8371  -1.5243  -0.9219  -0.9091  -0.4671  -0.3540  -0.1995  -0.1848
    -0.1220   0.0361   0.2989   0.4061   0.5373   0.6833   0.8332   0.8996
     1.0376   1.1199   1.1404   1.2688   1.3150   1.3477   1.5132   1.6036

          k = 0.0000 0.2598 0.0000 ( 48583 PWs)   bands (ev):

   -15.9698 -15.3993 -15.1629 -15.1357 -14.7208 -14.7068 -14.4719 -13.7143
   -13.7092 -13.2185 -13.1964 -13.1892 -13.0042 -12.9686 -12.7421 -12.7338
   -11.9932 -11.3595 -11.1127 -11.1049 -10.6446 -10.6408 -10.4452  -9.9327
    -9.9286  -9.7426  -9.6285  -9.6220  -9.2349  -9.2313  -9.0252  -9.0225
    -8.5710  -8.5678  -8.3104  -8.3067  -7.7954  -7.6100  -7.4407  -7.4364
    -7.1894  -7.1772  -7.0975  -7.0949  -6.6209  -6.6137  -6.4799  -6.4692
    -6.3322  -6.2410  -6.1473  -6.0937  -6.0723  -6.0567  -5.5324  -5.3584
    -5.2562  -5.2282  -5.1012  -5.0982  -4.8597  -4.8539  -4.8424  -4.6167
    -4.5245  -4.5185  -4.5162  -4.5067  -4.4332  -4.2144  -4.2121  -3.9242
    -3.9020  -3.7738  -3.7726  -3.5318  -3.3573  -3.2132  -3.1681  -3.1600
    -3.1241  -3.1039  -2.9294  -2.9196  -2.8547  -2.7212  -2.7085  -2.5146
    -2.4894  -2.4762  -2.3479  -2.2508  -2.2500  -2.1072  -1.8815  -1.8768
    -1.8043  -1.5485  -0.9627  -0.9507  -0.4597  -0.3416  -0.1779  -0.1660
    -0.0949   0.1396   0.3078   0.4115   0.5614   0.7056   0.8966   0.9247
     1.0463   1.1264   1.1671   1.2763   1.3386   1.3409   1.5267   1.5904

          k = 0.0000 0.2887 0.0000 ( 48601 PWs)   bands (ev):

   -15.9578 -15.4364 -15.1757 -15.1499 -14.6839 -14.6715 -14.4157 -13.7664
   -13.7618 -13.2439 -13.2134 -13.1845 -13.0086 -12.9731 -12.7045 -12.6964
   -11.9793 -11.4023 -11.1266 -11.1189 -10.6076 -10.6036 -10.3947  -9.9073
    -9.9030  -9.6841  -9.6809  -9.6691  -9.2732  -9.2684  -9.0658  -9.0627
    -8.5217  -8.5184  -8.2589  -8.2549  -7.8752  -7.7183  -7.4907  -7.4868
    -7.2250  -7.2150  -7.1521  -7.1508  -6.5830  -6.5762  -6.4284  -6.4180
    -6.3185  -6.1792  -6.0748  -6.0391  -6.0207  -6.0000  -5.4225  -5.3423
    -5.2641  -5.2329  -5.1464  -5.1430  -4.8508  -4.8172  -4.8077  -4.5765
    -4.5743  -4.5455  -4.4852  -4.4842  -4.4613  -4.2284  -4.2254  -3.9333
    -3.8950  -3.8215  -3.8201  -3.5855  -3.3727  -3.2579  -3.2239  -3.2139
    -3.1292  -3.1173  -2.9516  -2.9404  -2.8655  -2.7395  -2.7237  -2.5059
    -2.4726  -2.4512  -2.3140  -2.2555  -2.2551  -2.1886  -1.8457  -1.8407
    -1.7717  -1.5746  -1.0039  -0.9927  -0.4543  -0.3313  -0.1562  -0.1498
    -0.0682   0.2400   0.3209   0.4135   0.5805   0.7250   0.9430   0.9586
     1.0546   1.1313   1.2092   1.2840   1.3351   1.3829   1.5485   1.5820

          k = 0.0000 0.3175 0.0000 ( 48613 PWs)   bands (ev):

   -15.9446 -15.4724 -15.1874 -15.1628 -14.6461 -14.6351 -14.3585 -13.8185
   -13.8142 -13.2920 -13.2103 -13.1792 -13.0140 -12.9778 -12.6688 -12.6609
   -11.9637 -11.4438 -11.1391 -11.1316 -10.5697 -10.5656 -10.3460  -9.8801
    -9.8755  -9.7330  -9.7274  -9.6094  -9.3094  -9.3024  -9.1082  -9.1047
    -8.4712  -8.4678  -8.2074  -8.2032  -7.9536  -7.8213  -7.5410  -7.5374
    -7.2594  -7.2531  -7.2039  -7.2021  -6.5477  -6.5415  -6.3724  -6.3622
    -6.3042  -6.1288  -6.0096  -5.9910  -5.9641  -5.9406  -5.3224  -5.3071
    -5.2712  -5.2306  -5.1950  -5.1911  -4.8426  -4.7801  -4.7718  -4.6294
    -4.6236  -4.4987  -4.4880  -4.4495  -4.4485  -4.2450  -4.2413  -3.9694
    -3.8747  -3.8695  -3.8600  -3.6420  -3.3887  -3.3104  -3.2870  -3.2730
    -3.1319  -3.1230  -2.9732  -2.9589  -2.8759  -2.7566  -2.7381  -2.5295
    -2.4352  -2.4136  -2.2826  -2.2678  -2.2580  -2.2563  -1.8100  -1.8039
    -1.7401  -1.6019  -1.0460  -1.0356  -0.4509  -0.3234  -0.1367  -0.1348
    -0.0422   0.3347   0.3390   0.4126   0.5956   0.7397   0.9573   1.0129
     1.0643   1.1391   1.2472   1.2920   1.3512   1.4383   1.5800   1.5816

          k = 0.0000 0.3464 0.0000 ( 48605 PWs)   bands (ev):

   -15.9301 -15.5073 -15.1978 -15.1741 -14.6074 -14.5975 -14.3007 -13.8703
   -13.8662 -13.3432 -13.2068 -13.1736 -13.0200 -12.9827 -12.6353 -12.6277
   -11.9469 -11.4839 -11.1504 -11.1430 -10.5306 -10.5264 -10.2996  -9.8506
    -9.8455  -9.7844  -9.7786  -9.5395  -9.3430  -9.3316  -9.1527  -9.1487
    -8.4199  -8.4166  -8.1558  -8.1511  -8.0336  -7.9201  -7.5916  -7.5881
    -7.2972  -7.2967  -7.2499  -7.2430  -6.5160  -6.5106  -6.3152  -6.3038
    -6.2870  -6.0929  -5.9575  -5.9474  -5.8959  -5.8766  -5.2960  -5.2774
    -5.2474  -5.2437  -5.2123  -5.1996  -4.8315  -4.7439  -4.7356  -4.6869
    -4.6805  -4.5122  -4.4441  -4.4135  -4.4102  -4.2601  -4.2556  -4.0106
    -3.9156  -3.9154  -3.8353  -3.7053  -3.4054  -3.3689  -3.3534  -3.3340
    -3.1353  -3.1260  -2.9934  -2.9747  -2.8855  -2.7721  -2.7511  -2.5517
    -2.3975  -2.3765  -2.3351  -2.2721  -2.2656  -2.2355  -1.7754  -1.7666
    -1.7105  -1.6291  -1.0883  -1.0786  -0.4492  -0.3176  -0.1270  -0.1141
    -0.0172   0.3558   0.4093   0.4262   0.6086   0.7485   0.9695   1.0493
     1.0774   1.1579   1.2591   1.2982   1.4050   1.5022   1.5948   1.6221

          k = 0.0000 0.3753 0.0000 ( 48609 PWs)   bands (ev):

   -15.9147 -15.5408 -15.2069 -15.1841 -14.5680 -14.5590 -14.2419 -13.9216
   -13.9176 -13.3968 -13.2033 -13.1680 -13.0264 -12.9876 -12.6048 -12.5974
   -11.9286 -11.5229 -11.1604 -11.1530 -10.4904 -10.4861 -10.2561  -9.8393
    -9.8330  -9.8156  -9.8103  -9.4738  -9.3739  -9.3500  -9.1985  -9.1939
    -8.3683  -8.3649  -8.1212  -8.1015  -8.0985  -8.0059  -7.6423  -7.6390
    -7.3474  -7.3443  -7.2842  -7.2741  -6.4880  -6.4833  -6.2776  -6.2479
    -6.2424  -6.0720  -5.9149  -5.9078  -5.8200  -5.8071  -5.3057  -5.3037
    -5.2794  -5.2782  -5.1640  -5.0927  -4.8211  -4.7535  -4.7530  -4.6977
    -4.6966  -4.5344  -4.3926  -4.3772  -4.3685  -4.2749  -4.2695  -4.0569
    -3.9578  -3.9577  -3.8073  -3.7721  -3.4318  -3.4242  -3.4212  -3.3949
    -3.1402  -3.1285  -3.0123  -2.9878  -2.8942  -2.7862  -2.7628  -2.5716
    -2.3973  -2.3626  -2.3422  -2.2748  -2.2705  -2.2007  -1.7462  -1.7294
    -1.6823  -1.6518  -1.1309  -1.1218  -0.4490  -0.3139  -0.1204  -0.0947
     0.0064   0.3738   0.4043   0.5090   0.6214   0.7522   0.9801   1.0646
     1.0938   1.1873   1.2560   1.3021   1.4819   1.5649   1.6324   1.6741

          k = 0.0000 0.4041 0.0000 ( 48599 PWs)   bands (ev):

   -15.8983 -15.5732 -15.2150 -15.1927 -14.5273 -14.5192 -14.1828 -13.9722
   -13.9685 -13.4522 -13.1998 -13.1621 -13.0330 -12.9923 -12.5776 -12.5702
   -11.9089 -11.5605 -11.1689 -11.1617 -10.4493 -10.4450 -10.2164  -9.8883
    -9.8820  -9.7839  -9.7778  -9.4375  -9.4010  -9.3322  -9.2447  -9.2393
    -8.3163  -8.3130  -8.2116  -8.0814  -8.0467  -8.0456  -7.6933  -7.6901
    -7.4004  -7.3960  -7.3088  -7.2980  -6.4636  -6.4596  -6.2598  -6.1861
    -6.1790  -6.0637  -5.8783  -5.8725  -5.7421  -5.7341  -5.3621  -5.3579
    -5.2825  -5.2795  -5.0983  -4.9869  -4.8203  -4.8164  -4.8071  -4.6604
    -4.6603  -4.5555  -4.3505  -4.3432  -4.3239  -4.2903  -4.2850  -4.1061
    -3.9949  -3.9946  -3.8438  -3.7794  -3.4976  -3.4910  -3.4553  -3.4439
    -3.1463  -3.1311  -3.0283  -2.9978  -2.9020  -2.7983  -2.7729  -2.5891
    -2.4518  -2.3296  -2.3097  -2.2786  -2.2749  -2.1638  -1.7374  -1.6930
    -1.6552  -1.6548  -1.1737  -1.1652  -0.4498  -0.3117  -0.1164  -0.0766
     0.0284   0.3893   0.3985   0.5831   0.6350   0.7530   0.9890   1.0681
     1.1127   1.2156   1.2489   1.3039   1.5673   1.6194   1.7012   1.7322

          k = 0.0000 0.4330 0.0000 ( 48595 PWs)   bands (ev):

   -15.8810 -15.6040 -15.2218 -15.2001 -14.4858 -14.4784 -14.1235 -14.0221
   -14.0187 -13.5089 -13.1965 -13.1563 -13.0395 -12.9966 -12.5539 -12.5467
   -11.8876 -11.5969 -11.1762 -11.1690 -10.4073 -10.4029 -10.1810  -9.9386
    -9.9320  -9.7492  -9.7422  -9.4416  -9.4251  -9.2925  -9.2845  -9.2656
    -8.3103  -8.2642  -8.2611  -8.1373  -7.9964  -7.9927  -7.7444  -7.7412
    -7.4553  -7.4506  -7.3281  -7.3173  -6.4431  -6.4396  -6.2434  -6.1203
    -6.1122  -6.0638  -5.8474  -5.8424  -5.6645  -5.6595  -5.4210  -5.4161
    -5.2852  -5.2796  -5.0218  -4.8884  -4.8858  -4.8796  -4.7993  -4.6288
    -4.6206  -4.5678  -4.3203  -4.3168  -4.3119  -4.2978  -4.2776  -4.1507
    -4.0217  -4.0209  -3.9184  -3.7513  -3.5646  -3.5602  -3.5149  -3.4639
    -3.1529  -3.1339  -3.0414  -3.0048  -2.9086  -2.8086  -2.7812  -2.6036
    -2.4984  -2.3014  -2.2843  -2.2793  -2.2781  -2.1261  -1.7567  -1.6607
    -1.6303  -1.6267  -1.2167  -1.2086  -0.4513  -0.3110  -0.1143  -0.0605
     0.0483   0.3927   0.4012   0.6459   0.6498   0.7543   0.9961   1.0672
     1.1326   1.2354   1.2413   1.3032   1.6542   1.6755   1.7840   1.7870

          k = 0.0000 0.4619 0.0000 ( 48575 PWs)   bands (ev):

   -15.8631 -15.6326 -15.2273 -15.2060 -14.4432 -14.4364 -14.0773 -14.0683
   -14.0582 -13.5666 -13.1935 -13.1508 -13.0457 -13.0004 -12.5342 -12.5270
   -11.8650 -11.6320 -11.1822 -11.1751 -10.3643 -10.3599 -10.1507  -9.9883
    -9.9812  -9.7131  -9.7048  -9.4559  -9.4460  -9.3379  -9.3288  -9.1854
    -8.4107  -8.2120  -8.2100  -8.1827  -7.9441  -7.9399  -7.7957  -7.7925
    -7.5101  -7.5054  -7.3434  -7.3328  -6.4264  -6.4234  -6.2272  -6.0726
    -6.0501  -6.0440  -5.8215  -5.8172  -5.5904  -5.5861  -5.4763  -5.4715
    -5.2871  -5.2802  -4.9552  -4.9551  -4.9388  -4.7882  -4.7800  -4.6204
    -4.5801  -4.5555  -4.3294  -4.3132  -4.3062  -4.2999  -4.2726  -4.1618
    -4.0317  -4.0298  -3.9963  -3.7218  -3.6317  -3.6289  -3.5729  -3.4860
    -3.1596  -3.1374  -3.0513  -3.0094  -2.9141  -2.8171  -2.7880  -2.6147
    -2.5371  -2.2862  -2.2861  -2.2735  -2.2579  -2.0880  -1.7874  -1.6362
    -1.5949  -1.5931  -1.2597  -1.2518  -0.4533  -0.3113  -0.1136  -0.0466
     0.0655   0.3872   0.4091   0.6591   0.7000   0.7595   1.0012   1.0648
     1.1521   1.2349   1.2467   1.2997   1.7347   1.7350   1.8192   1.8787

          k = 0.0000 0.4907 0.0000 ( 48569 PWs)   bands (ev):

   -15.8452 -15.6592 -15.2317 -15.2107 -14.4000 -14.3937 -14.1219 -14.1170
   -14.0030 -13.6243 -13.1911 -13.1459 -13.0512 -13.0036 -12.5186 -12.5115
   -11.8409 -11.6657 -11.1869 -11.1798 -10.3205 -10.3162 -10.1272 -10.0373
   -10.0289  -9.6763  -9.6661  -9.4698  -9.4635  -9.3834  -9.3712  -9.0971
    -8.5120  -8.2209  -8.1599  -8.1560  -7.8910  -7.8863  -7.8470  -7.8435
    -7.5652  -7.5604  -7.3550  -7.3447  -6.4134  -6.4107  -6.2114  -6.0810
    -5.9859  -5.9768  -5.8015  -5.7981  -5.5706  -5.5603  -5.4802  -5.4799
    -5.2881  -5.2804  -5.0271  -5.0271  -4.8536  -4.7745  -4.6814  -4.6296
    -4.5413  -4.5211  -4.3607  -4.3236  -4.3143  -4.3051  -4.2985  -4.1315
    -4.0762  -4.0196  -4.0161  -3.6978  -3.6971  -3.6956  -3.6266  -3.5065
    -3.1663  -3.1415  -3.0586  -3.0126  -2.9185  -2.8241  -2.7936  -2.6224
    -2.5681  -2.2887  -2.2868  -2.2569  -2.2395  -2.0495  -1.8220  -1.6189
    -1.5565  -1.5553  -1.3026  -1.2946  -0.4554  -0.3122  -0.1135  -0.0355
     0.0797   0.3823   0.4140   0.6651   0.7398   0.7706   1.0046   1.0623
     1.1696   1.2308   1.2521   1.2934   1.7898   1.7922   1.8559   1.9393

          k = 0.0000 0.5196 0.0000 ( 48597 PWs)   bands (ev):

   -15.8283 -15.6821 -15.2349 -15.2141 -14.3558 -14.3499 -14.1700 -14.1652
   -13.9450 -13.6815 -13.1893 -13.1418 -13.0557 -13.0061 -12.5073 -12.5002
   -11.8158 -11.6980 -11.1902 -11.1830 -10.2762 -10.2719 -10.1145 -10.0856
   -10.0715  -9.6415  -9.6281  -9.4811  -9.4784  -9.4262  -9.4085  -9.0058
    -8.6123  -8.2467  -8.1081  -8.1044  -7.8989  -7.8963  -7.8363  -7.8321
    -7.6202  -7.6156  -7.3632  -7.3530  -6.4041  -6.4016  -6.1968  -6.0919
    -5.9219  -5.9097  -5.7858  -5.7839  -5.6271  -5.6125  -5.4129  -5.4118
    -5.2887  -5.2805  -5.1013  -5.1010  -4.7673  -4.7654  -4.6423  -4.5892
    -4.5098  -4.4818  -4.4084  -4.3367  -4.3346  -4.3216  -4.3207  -4.1598
    -4.0870  -3.9881  -3.9834  -3.7618  -3.7617  -3.6746  -3.6737  -3.5255
    -3.1715  -3.1451  -3.0635  -3.0147  -2.9216  -2.8294  -2.7978  -2.6262
    -2.5919  -2.2907  -2.2885  -2.2432  -2.2257  -2.0110  -1.8583  -1.6074
    -1.5174  -1.5156  -1.3453  -1.3365  -0.4571  -0.3132  -0.1139  -0.0273
     0.0902   0.3787   0.4164   0.6670   0.7657   0.7854   1.0067   1.0602
     1.1830   1.2304   1.2542   1.2851   1.8206   1.8306   1.8935   1.9253

          k = 0.0000 0.5485 0.0000 ( 48596 PWs)   bands (ev):

   -15.8151 -15.6992 -15.2367 -15.2160 -14.3108 -14.3052 -14.2173 -14.2125
   -13.8920 -13.7343 -13.1881 -13.1391 -13.0587 -13.0075 -12.5004 -12.4934
   -11.7895 -11.7283 -11.1922 -11.1851 -10.2318 -10.2273 -10.1353 -10.1322
   -10.0862  -9.6115  -9.5927  -9.4917  -9.4905  -9.4614  -9.4352  -8.9125
    -8.7100  -8.2626  -8.0566  -8.0529  -7.9499  -7.9472  -7.7830  -7.7784
    -7.6746  -7.6703  -7.3684  -7.3583  -6.3986  -6.3963  -6.1857  -6.1017
    -5.8633  -5.8453  -5.7771  -5.7739  -5.6904  -5.6650  -5.3388  -5.3367
    -5.2878  -5.2785  -5.1767  -5.1760  -4.7583  -4.6824  -4.6516  -4.5402
    -4.4895  -4.4416  -4.4252  -4.3640  -4.3616  -4.3394  -4.3295  -4.2270
    -4.0571  -3.9442  -3.9392  -3.8231  -3.8220  -3.7108  -3.6573  -3.5433
    -3.1746  -3.1474  -3.0656  -3.0152  -2.9234  -2.8323  -2.7999  -2.6257
    -2.6091  -2.2918  -2.2896  -2.2355  -2.2180  -1.9726  -1.8956  -1.6011
    -1.4801  -1.4752  -1.3870  -1.3752  -0.4582  -0.3139  -0.1144  -0.0221
     0.0968   0.3765   0.4175   0.6670   0.7799   0.7979   1.0078   1.0588
     1.1905   1.2338   1.2549   1.2766   1.8360   1.8538   1.9033   1.9213

          k = 0.0000 0.5774 0.0000 ( 48666 PWs)   bands (ev):

   -15.8097 -15.7059 -15.2375 -15.2168 -14.2702 -14.2636 -14.2588 -14.2550
   -13.8629 -13.7635 -13.1878 -13.1383 -13.0598 -13.0081 -12.4983 -12.4912
   -11.7691 -11.7503 -11.1931 -11.1860 -10.1991 -10.1924 -10.1683 -10.1657
   -10.0853  -9.5984  -9.5747  -9.4999  -9.4995  -9.4759  -9.4457  -8.8379
    -8.7867  -8.2679  -8.0155  -8.0101  -7.9911  -7.9900  -7.7350  -7.7248
    -7.7245  -7.7233  -7.3710  -7.3609  -6.3968  -6.3946  -6.1814  -6.1059
    -5.8339  -5.8106  -5.7781  -5.7513  -5.7460  -5.6917  -5.2971  -5.2967
    -5.2674  -5.2530  -5.2446  -5.2374  -4.7559  -4.6553  -4.6076  -4.5962
    -4.4515  -4.4092  -4.4064  -4.3938  -4.3863  -4.3563  -4.3341  -4.2585
    -4.0448  -3.9075  -3.9018  -3.8653  -3.8644  -3.7244  -3.6517  -3.5498
    -3.1760  -3.1485  -3.0667  -3.0158  -2.9241  -2.8335  -2.8009  -2.6209
    -2.6195  -2.2924  -2.2901  -2.2332  -2.2157  -1.9387  -1.9291  -1.5989
    -1.4585  -1.4445  -1.4184  -1.3975  -0.4587  -0.3142  -0.1146  -0.0205
     0.0989   0.3756   0.4177   0.6668   0.7845   0.8024   1.0081   1.0583
     1.1926   1.2366   1.2549   1.2724   1.8421   1.8610   1.8982   1.9256

     Writing output data file Ge+SiC_I__3.0.save/

     init_run     :      2.12s CPU      2.19s WALL (       1 calls)
     electrons    :  19404.28s CPU  19468.37s WALL (       1 calls)

     Called by init_run:
     wfcinit      :      0.00s CPU      0.00s WALL (       1 calls)
     wfcinit:atom :     15.48s CPU     25.02s WALL (      61 calls)
     wfcinit:wfcr :   7138.35s CPU   7150.19s WALL (      61 calls)
     potinit      :      0.63s CPU      0.67s WALL (       1 calls)
     hinit0       :      1.27s CPU      1.28s WALL (       1 calls)

     Called by electrons:
     c_bands      :  19404.28s CPU  19468.37s WALL (       1 calls)
     v_of_rho     :      0.56s CPU      0.59s WALL (       1 calls)
     v_h          :      0.03s CPU      0.04s WALL (       1 calls)
     v_xc         :      0.53s CPU      0.55s WALL (       1 calls)

     Called by c_bands:
     init_us_2    :      7.36s CPU      7.55s WALL (      61 calls)
     cegterg      :  12097.06s CPU  12135.08s WALL (     122 calls)

     Called by sum_band:

     Called by *egterg:
     h_psi        :  11910.80s CPU  11945.68s WALL (    1920 calls)
     g_psi        :     25.96s CPU     25.98s WALL (    1737 calls)
     cdiaghg      :    274.94s CPU    275.01s WALL (    1798 calls)
     cegterg:over :   1966.63s CPU   1966.77s WALL (    1737 calls)
     cegterg:upda :   1260.62s CPU   1268.51s WALL (    1737 calls)
     cegterg:last :    637.71s CPU    637.79s WALL (     244 calls)

     Called by h_psi:
     h_psi:pot    :  11885.60s CPU  11903.95s WALL (    1920 calls)
     h_psi:calbec :   3295.01s CPU   3307.52s WALL (    1920 calls)
     vloc_psi     :   5731.05s CPU   5736.41s WALL (    1920 calls)
     add_vuspsi   :   2859.51s CPU   2860.00s WALL (    1920 calls)

     General routines
     calbec       :   3294.99s CPU   3307.52s WALL (    1920 calls)
     fft          :      0.27s CPU      0.27s WALL (      11 calls)
     fftw         :   4898.35s CPU   4901.71s WALL (  272952 calls)
     davcio       :      0.31s CPU     81.70s WALL (     122 calls)

     Parallel routines

     PWSCF        :     5h23m CPU       23h 5m WALL

      26h

   This run was terminated on:  13:26:21  18Apr2020            

=------------------------------------------------------------------------------=
   JOB DONE.
=------------------------------------------------------------------------------=
