
     Program BANDS v.6.3 starts on 18Apr2020 at 13:26:23 

     This program is part of the open-source Quantum ESPRESSO suite
     for quantum simulation of materials; please cite
         "P. Giannozzi et al., J. Phys.:Condens. Matter 21 395502 (2009);
         "P. Giannozzi et al., J. Phys.:Condens. Matter 29 465901 (2017);
          URL http://www.quantum-espresso.org", 
     in publications or presentations arising from this work. More details at
     http://www.quantum-espresso.org/quote

     Parallel version (MPI), running on     1 processors

     MPI processes distributed on     1 nodes

     Reading data from directory:
     /home/nano3/Desktop/RAYID/Ge+SiC/Ge+SiC_I/work/Ge+SiC_I__3.0.save/

     IMPORTANT: XC functional enforced from input :
     Exchange-correlation      = PBE ( 1  4  3  4 0 0)
     Any further DFT definition will be discarded
     Please, verify this is what you really want

               file Ge.pbe-mt_fhi.UPF: wavefunction(s)  4d 4f renormalized
               file C.pbe-mt_fhi.UPF: wavefunction(s)  4f renormalized
               file Si.pbe-mt_fhi.UPF: wavefunction(s)  4f renormalized

     G-vector sticks info
     --------------------
     sticks:   dense  smooth     PW     G-vecs:    dense   smooth      PW
     Sum        4429    4429   1177               388955   388955   53541

     high-symmetry point:  0.0000 0.5774 0.0000   x coordinate   0.0000
     high-symmetry point:  0.3333 0.5774 0.0000   x coordinate   0.3333
     high-symmetry point:  0.0000 0.0000 0.0000   x coordinate   1.0000
     high-symmetry point:  0.0000 0.5774 0.0000   x coordinate   1.5774

     Plottable bands (eV) written to file /home/nano3/Desktop/RAYID/Ge+SiC/Ge+SiC_I/OUT/Ge+SiC_I__3.0.band.gnu
     Bands written to file /home/nano3/Desktop/RAYID/Ge+SiC/Ge+SiC_I/OUT/Ge+SiC_I__3.0.band

 **************************************************************************

                    xk=(   0.00000,   0.57735,   0.00000  )

     point group C_s (m)    
     there are  2 classes
     the character table:

       E     s    
A'     1.00  1.00
A''    1.00 -1.00

     the symmetry operations in each class and the name of the first element:

     E        1
                                                                 
     s        2
                                                                 

     Band symmetry, C_s (m)     point group:

     e(  1 -  1) =    -15.80966  eV     1   --> A'             
     e(  2 -  2) =    -15.70594  eV     1   --> A'             
     e(  3 -  3) =    -15.23746  eV     1   --> A''            
     e(  4 -  4) =    -15.21683  eV     1   --> A'             
     e(  5 -  5) =    -14.27023  eV     1   --> A'             
     e(  6 -  6) =    -14.26362  eV     1   --> A''            
     e(  7 -  7) =    -14.25875  eV     1   --> A'             
     e(  8 -  8) =    -14.25503  eV     1   --> A''            
     e(  9 -  9) =    -13.86291  eV     1   --> A'             
     e( 10 - 10) =    -13.76346  eV     1   --> A'             
     e( 11 - 11) =    -13.18781  eV     1   --> A'             
     e( 12 - 12) =    -13.13827  eV     1   --> A''            
     e( 13 - 13) =    -13.05980  eV     1   --> A''            
     e( 14 - 14) =    -13.00814  eV     1   --> A'             
     e( 15 - 15) =    -12.49827  eV     1   --> A''            
     e( 16 - 16) =    -12.49120  eV     1   --> A'             
     e( 17 - 17) =    -11.76912  eV     1   --> A'             
     e( 18 - 18) =    -11.75027  eV     1   --> A'             
     e( 19 - 19) =    -11.19309  eV     1   --> A''            
     e( 20 - 20) =    -11.18600  eV     1   --> A'             
     e( 21 - 21) =    -10.19912  eV     1   --> A''            
     e( 22 - 22) =    -10.19243  eV     1   --> A'             
     e( 23 - 23) =    -10.16833  eV     1   --> A'             
     e( 24 - 24) =    -10.16573  eV     1   --> A''            
     e( 25 - 25) =    -10.08529  eV     1   --> A'             
     e( 26 - 26) =     -9.59836  eV     1   --> A''            
     e( 27 - 27) =     -9.57475  eV     1   --> A'             
     e( 28 - 28) =     -9.49986  eV     1   --> A''            
     e( 29 - 29) =     -9.49947  eV     1   --> A'             
     e( 30 - 30) =     -9.47585  eV     1   --> A'             
     e( 31 - 31) =     -9.44565  eV     1   --> A''            
     e( 32 - 32) =     -8.83786  eV     1   --> A'             
     e( 33 - 33) =     -8.78668  eV     1   --> A'             
     e( 34 - 34) =     -8.26789  eV     1   --> A'             
     e( 35 - 35) =     -8.01547  eV     1   --> A''            
     e( 36 - 36) =     -8.01014  eV     1   --> A'             
     e( 37 - 37) =     -7.99108  eV     1   --> A''            
     e( 38 - 38) =     -7.98997  eV     1   --> A'             
     e( 39 - 39) =     -7.73501  eV     1   --> A'             
     e( 40 - 40) =     -7.72477  eV     1   --> A''            
     e( 41 - 41) =     -7.72448  eV     1   --> A''            
     e( 42 - 42) =     -7.72332  eV     1   --> A'             
     e( 43 - 43) =     -7.37097  eV     1   --> A''            
     e( 44 - 44) =     -7.36092  eV     1   --> A'             
     e( 45 - 45) =     -6.39685  eV     1   --> A''            
     e( 46 - 46) =     -6.39463  eV     1   --> A'             
     e( 47 - 47) =     -6.18136  eV     1   --> A'             
     e( 48 - 48) =     -6.10591  eV     1   --> A'             
     e( 49 - 49) =     -5.83389  eV     1   --> A'             
     e( 50 - 50) =     -5.81058  eV     1   --> A''            
     e( 51 - 51) =     -5.77809  eV     1   --> A'             
     e( 52 - 52) =     -5.75129  eV     1   --> A''            
     e( 53 - 53) =     -5.74596  eV     1   --> A''            
     e( 54 - 54) =     -5.69174  eV     1   --> A'             
     e( 55 - 55) =     -5.29713  eV     1   --> A'             
     e( 56 - 56) =     -5.29671  eV     1   --> A''            
     e( 57 - 57) =     -5.26736  eV     1   --> A''            
     e( 58 - 58) =     -5.25302  eV     1   --> A'             
     e( 59 - 59) =     -5.24457  eV     1   --> A'             
     e( 60 - 60) =     -5.23736  eV     1   --> A''            
     e( 61 - 61) =     -4.75590  eV     1   --> A''            
     e( 62 - 62) =     -4.65526  eV     1   --> A''            
     e( 63 - 63) =     -4.60758  eV     1   --> A'             
     e( 64 - 64) =     -4.59624  eV     1   --> A'             
     e( 65 - 65) =     -4.45150  eV     1   --> A'             
     e( 66 - 66) =     -4.40919  eV     1   --> A''            
     e( 67 - 67) =     -4.40644  eV     1   --> A'             
     e( 68 - 68) =     -4.39376  eV     1   --> A''            
     e( 69 - 69) =     -4.38635  eV     1   --> A'             
     e( 70 - 70) =     -4.35626  eV     1   --> A'             
     e( 71 - 71) =     -4.33410  eV     1   --> A''            
     e( 72 - 72) =     -4.25851  eV     1   --> A'             
     e( 73 - 73) =     -4.04481  eV     1   --> A'             
     e( 74 - 74) =     -3.90745  eV     1   --> A''            
     e( 75 - 75) =     -3.90179  eV     1   --> A'             
     e( 76 - 76) =     -3.86535  eV     1   --> A''            
     e( 77 - 77) =     -3.86444  eV     1   --> A'             
     e( 78 - 78) =     -3.72439  eV     1   --> A'             
     e( 79 - 79) =     -3.65174  eV     1   --> A''            
     e( 80 - 80) =     -3.54984  eV     1   --> A''            
     e( 81 - 81) =     -3.17599  eV     1   --> A''            
     e( 82 - 82) =     -3.14846  eV     1   --> A'             
     e( 83 - 83) =     -3.06669  eV     1   --> A'             
     e( 84 - 84) =     -3.01578  eV     1   --> A''            
     e( 85 - 85) =     -2.92408  eV     1   --> A''            
     e( 86 - 86) =     -2.83348  eV     1   --> A''            
     e( 87 - 87) =     -2.80091  eV     1   --> A'             
     e( 88 - 88) =     -2.62089  eV     1   --> A'             
     e( 89 - 89) =     -2.61948  eV     1   --> A'             
     e( 90 - 90) =     -2.29238  eV     1   --> A''            
     e( 91 - 91) =     -2.29011  eV     1   --> A'             
     e( 92 - 92) =     -2.23324  eV     1   --> A'             
     e( 93 - 93) =     -2.21571  eV     1   --> A''            
     e( 94 - 94) =     -1.93867  eV     1   --> A''            
     e( 95 - 95) =     -1.92913  eV     1   --> A''            
     e( 96 - 96) =     -1.59885  eV     1   --> A'             
     e( 97 - 97) =     -1.45845  eV     1   --> A''            
     e( 98 - 98) =     -1.44446  eV     1   --> A'             
     e( 99 - 99) =     -1.41842  eV     1   --> A'             
     e(100 -100) =     -1.39754  eV     1   --> A''            
     e(101 -101) =     -0.45868  eV     1   --> A'             
     e(102 -102) =     -0.31424  eV     1   --> A''            
     e(103 -103) =     -0.11462  eV     1   --> A'             
     e(104 -104) =     -0.02053  eV     1   --> A''            
     e(105 -105) =      0.09891  eV     1   --> A'             
     e(106 -106) =      0.37558  eV     1   --> A''            
     e(107 -107) =      0.41770  eV     1   --> A'             
     e(108 -108) =      0.66684  eV     1   --> A'             
     e(109 -109) =      0.78449  eV     1   --> A'             
     e(110 -110) =      0.80243  eV     1   --> A'             
     e(111 -111) =      1.00811  eV     1   --> A'             
     e(112 -112) =      1.05833  eV     1   --> A''            
     e(113 -113) =      1.19257  eV     1   --> A'             
     e(114 -114) =      1.23662  eV     1   --> A'             
     e(115 -115) =      1.25490  eV     1   --> A''            
     e(116 -116) =      1.27238  eV     1   --> A'             
     e(117 -117) =      1.84213  eV     1   --> A'             
     e(118 -118) =      1.86096  eV     1   --> A''            
     e(119 -119) =      1.89823  eV     1   --> A'             
     e(120 -120) =      1.92559  eV     1   --> A'             

 **************************************************************************

 **************************************************************************

                    xk=(   0.01667,   0.57735,   0.00000  )

     point group C_1 (1)    
     there are  1 classes
     the character table:

       E    
A      1.00

     the symmetry operations in each class and the name of the first element:

     E        1
                                                                 

     Band symmetry, C_1 (1)     point group:

     e(  1 -  1) =    -15.80941  eV     1   --> A              
     e(  2 -  2) =    -15.70568  eV     1   --> A              
     e(  3 -  3) =    -15.25372  eV     1   --> A              
     e(  4 -  4) =    -15.19985  eV     1   --> A              
     e(  5 -  5) =    -14.28768  eV     1   --> A              
     e(  6 -  6) =    -14.28209  eV     1   --> A              
     e(  7 -  7) =    -14.24109  eV     1   --> A              
     e(  8 -  8) =    -14.23620  eV     1   --> A              
     e(  9 -  9) =    -13.86253  eV     1   --> A              
     e( 10 - 10) =    -13.76310  eV     1   --> A              
     e( 11 - 11) =    -13.19818  eV     1   --> A              
     e( 12 - 12) =    -13.13364  eV     1   --> A              
     e( 13 - 13) =    -13.06496  eV     1   --> A              
     e( 14 - 14) =    -12.99842  eV     1   --> A              
     e( 15 - 15) =    -12.50567  eV     1   --> A              
     e( 16 - 16) =    -12.48373  eV     1   --> A              
     e( 17 - 17) =    -11.76882  eV     1   --> A              
     e( 18 - 18) =    -11.74997  eV     1   --> A              
     e( 19 - 19) =    -11.21719  eV     1   --> A              
     e( 20 - 20) =    -11.16122  eV     1   --> A              
     e( 21 - 21) =    -10.21183  eV     1   --> A              
     e( 22 - 22) =    -10.19575  eV     1   --> A              
     e( 23 - 23) =    -10.16748  eV     1   --> A              
     e( 24 - 24) =    -10.15123  eV     1   --> A              
     e( 25 - 25) =    -10.08470  eV     1   --> A              
     e( 26 - 26) =     -9.60974  eV     1   --> A              
     e( 27 - 27) =     -9.57021  eV     1   --> A              
     e( 28 - 28) =     -9.50979  eV     1   --> A              
     e( 29 - 29) =     -9.48721  eV     1   --> A              
     e( 30 - 30) =     -9.47591  eV     1   --> A              
     e( 31 - 31) =     -9.43616  eV     1   --> A              
     e( 32 - 32) =     -8.83764  eV     1   --> A              
     e( 33 - 33) =     -8.78646  eV     1   --> A              
     e( 34 - 34) =     -8.26798  eV     1   --> A              
     e( 35 - 35) =     -8.04194  eV     1   --> A              
     e( 36 - 36) =     -8.02295  eV     1   --> A              
     e( 37 - 37) =     -7.97906  eV     1   --> A              
     e( 38 - 38) =     -7.96180  eV     1   --> A              
     e( 39 - 39) =     -7.77789  eV     1   --> A              
     e( 40 - 40) =     -7.77190  eV     1   --> A              
     e( 41 - 41) =     -7.68167  eV     1   --> A              
     e( 42 - 42) =     -7.67604  eV     1   --> A              
     e( 43 - 43) =     -7.40641  eV     1   --> A              
     e( 44 - 44) =     -7.32217  eV     1   --> A              
     e( 45 - 45) =     -6.44168  eV     1   --> A              
     e( 46 - 46) =     -6.35118  eV     1   --> A              
     e( 47 - 47) =     -6.18103  eV     1   --> A              
     e( 48 - 48) =     -6.10563  eV     1   --> A              
     e( 49 - 49) =     -5.85164  eV     1   --> A              
     e( 50 - 50) =     -5.83634  eV     1   --> A              
     e( 51 - 51) =     -5.78084  eV     1   --> A              
     e( 52 - 52) =     -5.74173  eV     1   --> A              
     e( 53 - 53) =     -5.72302  eV     1   --> A              
     e( 54 - 54) =     -5.67459  eV     1   --> A              
     e( 55 - 55) =     -5.30461  eV     1   --> A              
     e( 56 - 56) =     -5.28793  eV     1   --> A              
     e( 57 - 57) =     -5.26681  eV     1   --> A              
     e( 58 - 58) =     -5.25228  eV     1   --> A              
     e( 59 - 59) =     -5.24473  eV     1   --> A              
     e( 60 - 60) =     -5.23405  eV     1   --> A              
     e( 61 - 61) =     -4.75573  eV     1   --> A              
     e( 62 - 62) =     -4.65517  eV     1   --> A              
     e( 63 - 63) =     -4.60815  eV     1   --> A              
     e( 64 - 64) =     -4.59679  eV     1   --> A              
     e( 65 - 65) =     -4.45474  eV     1   --> A              
     e( 66 - 66) =     -4.42645  eV     1   --> A              
     e( 67 - 67) =     -4.41504  eV     1   --> A              
     e( 68 - 68) =     -4.38484  eV     1   --> A              
     e( 69 - 69) =     -4.36936  eV     1   --> A              
     e( 70 - 70) =     -4.36093  eV     1   --> A              
     e( 71 - 71) =     -4.33278  eV     1   --> A              
     e( 72 - 72) =     -4.24983  eV     1   --> A              
     e( 73 - 73) =     -4.04458  eV     1   --> A              
     e( 74 - 74) =     -3.90977  eV     1   --> A              
     e( 75 - 75) =     -3.90064  eV     1   --> A              
     e( 76 - 76) =     -3.86638  eV     1   --> A              
     e( 77 - 77) =     -3.86073  eV     1   --> A              
     e( 78 - 78) =     -3.72432  eV     1   --> A              
     e( 79 - 79) =     -3.64940  eV     1   --> A              
     e( 80 - 80) =     -3.54762  eV     1   --> A              
     e( 81 - 81) =     -3.18479  eV     1   --> A              
     e( 82 - 82) =     -3.14745  eV     1   --> A              
     e( 83 - 83) =     -3.07669  eV     1   --> A              
     e( 84 - 84) =     -3.00475  eV     1   --> A              
     e( 85 - 85) =     -2.92582  eV     1   --> A              
     e( 86 - 86) =     -2.83091  eV     1   --> A              
     e( 87 - 87) =     -2.79676  eV     1   --> A              
     e( 88 - 88) =     -2.62075  eV     1   --> A              
     e( 89 - 89) =     -2.61935  eV     1   --> A              
     e( 90 - 90) =     -2.31282  eV     1   --> A              
     e( 91 - 91) =     -2.26897  eV     1   --> A              
     e( 92 - 92) =     -2.24105  eV     1   --> A              
     e( 93 - 93) =     -2.20749  eV     1   --> A              
     e( 94 - 94) =     -1.93985  eV     1   --> A              
     e( 95 - 95) =     -1.93034  eV     1   --> A              
     e( 96 - 96) =     -1.59784  eV     1   --> A              
     e( 97 - 97) =     -1.46754  eV     1   --> A              
     e( 98 - 98) =     -1.43711  eV     1   --> A              
     e( 99 - 99) =     -1.42275  eV     1   --> A              
     e(100 -100) =     -1.39224  eV     1   --> A              
     e(101 -101) =     -0.45887  eV     1   --> A              
     e(102 -102) =     -0.31449  eV     1   --> A              
     e(103 -103) =     -0.11482  eV     1   --> A              
     e(104 -104) =     -0.02067  eV     1   --> A              
     e(105 -105) =      0.09819  eV     1   --> A              
     e(106 -106) =      0.37324  eV     1   --> A              
     e(107 -107) =      0.42206  eV     1   --> A              
     e(108 -108) =      0.66842  eV     1   --> A              
     e(109 -109) =      0.78651  eV     1   --> A              
     e(110 -110) =      0.80452  eV     1   --> A              
     e(111 -111) =      1.00829  eV     1   --> A              
     e(112 -112) =      1.05754  eV     1   --> A              
     e(113 -113) =      1.19362  eV     1   --> A              
     e(114 -114) =      1.23663  eV     1   --> A              
     e(115 -115) =      1.25665  eV     1   --> A              
     e(116 -116) =      1.27247  eV     1   --> A              
     e(117 -117) =      1.84210  eV     1   --> A              
     e(118 -118) =      1.85839  eV     1   --> A              
     e(119 -119) =      1.89815  eV     1   --> A              
     e(120 -120) =      1.92629  eV     1   --> A              

 **************************************************************************

 **************************************************************************

                    xk=(   0.03333,   0.57735,   0.00000  )

     Band symmetry, C_1 (1)     point group:

     e(  1 -  1) =    -15.80888  eV     1   --> A              
     e(  2 -  2) =    -15.70511  eV     1   --> A              
     e(  3 -  3) =    -15.27708  eV     1   --> A              
     e(  4 -  4) =    -15.17521  eV     1   --> A              
     e(  5 -  5) =    -14.30948  eV     1   --> A              
     e(  6 -  6) =    -14.30400  eV     1   --> A              
     e(  7 -  7) =    -14.21861  eV     1   --> A              
     e(  8 -  8) =    -14.21361  eV     1   --> A              
     e(  9 -  9) =    -13.86185  eV     1   --> A              
     e( 10 - 10) =    -13.76248  eV     1   --> A              
     e( 11 - 11) =    -13.22018  eV     1   --> A              
     e( 12 - 12) =    -13.13435  eV     1   --> A              
     e( 13 - 13) =    -13.06638  eV     1   --> A              
     e( 14 - 14) =    -12.97837  eV     1   --> A              
     e( 15 - 15) =    -12.51589  eV     1   --> A              
     e( 16 - 16) =    -12.47376  eV     1   --> A              
     e( 17 - 17) =    -11.76806  eV     1   --> A              
     e( 18 - 18) =    -11.74921  eV     1   --> A              
     e( 19 - 19) =    -11.24426  eV     1   --> A              
     e( 20 - 20) =    -11.13290  eV     1   --> A              
     e( 21 - 21) =    -10.22980  eV     1   --> A              
     e( 22 - 22) =    -10.21215  eV     1   --> A              
     e( 23 - 23) =    -10.15313  eV     1   --> A              
     e( 24 - 24) =    -10.13376  eV     1   --> A              
     e( 25 - 25) =    -10.08321  eV     1   --> A              
     e( 26 - 26) =     -9.62983  eV     1   --> A              
     e( 27 - 27) =     -9.57607  eV     1   --> A              
     e( 28 - 28) =     -9.50518  eV     1   --> A              
     e( 29 - 29) =     -9.49509  eV     1   --> A              
     e( 30 - 30) =     -9.45781  eV     1   --> A              
     e( 31 - 31) =     -9.41693  eV     1   --> A              
     e( 32 - 32) =     -8.83735  eV     1   --> A              
     e( 33 - 33) =     -8.78615  eV     1   --> A              
     e( 34 - 34) =     -8.26837  eV     1   --> A              
     e( 35 - 35) =     -8.07174  eV     1   --> A              
     e( 36 - 36) =     -8.05179  eV     1   --> A              
     e( 37 - 37) =     -7.94862  eV     1   --> A              
     e( 38 - 38) =     -7.93172  eV     1   --> A              
     e( 39 - 39) =     -7.82697  eV     1   --> A              
     e( 40 - 40) =     -7.82122  eV     1   --> A              
     e( 41 - 41) =     -7.63405  eV     1   --> A              
     e( 42 - 42) =     -7.62819  eV     1   --> A              
     e( 43 - 43) =     -7.44480  eV     1   --> A              
     e( 44 - 44) =     -7.27885  eV     1   --> A              
     e( 45 - 45) =     -6.48916  eV     1   --> A              
     e( 46 - 46) =     -6.30895  eV     1   --> A              
     e( 47 - 47) =     -6.18070  eV     1   --> A              
     e( 48 - 48) =     -6.10537  eV     1   --> A              
     e( 49 - 49) =     -5.89946  eV     1   --> A              
     e( 50 - 50) =     -5.86337  eV     1   --> A              
     e( 51 - 51) =     -5.80503  eV     1   --> A              
     e( 52 - 52) =     -5.71749  eV     1   --> A              
     e( 53 - 53) =     -5.68441  eV     1   --> A              
     e( 54 - 54) =     -5.63621  eV     1   --> A              
     e( 55 - 55) =     -5.31085  eV     1   --> A              
     e( 56 - 56) =     -5.27950  eV     1   --> A              
     e( 57 - 57) =     -5.26619  eV     1   --> A              
     e( 58 - 58) =     -5.25106  eV     1   --> A              
     e( 59 - 59) =     -5.24468  eV     1   --> A              
     e( 60 - 60) =     -5.22657  eV     1   --> A              
     e( 61 - 61) =     -4.75932  eV     1   --> A              
     e( 62 - 62) =     -4.65897  eV     1   --> A              
     e( 63 - 63) =     -4.61028  eV     1   --> A              
     e( 64 - 64) =     -4.59872  eV     1   --> A              
     e( 65 - 65) =     -4.46573  eV     1   --> A              
     e( 66 - 66) =     -4.44515  eV     1   --> A              
     e( 67 - 67) =     -4.43543  eV     1   --> A              
     e( 68 - 68) =     -4.37839  eV     1   --> A              
     e( 69 - 69) =     -4.35903  eV     1   --> A              
     e( 70 - 70) =     -4.34901  eV     1   --> A              
     e( 71 - 71) =     -4.33163  eV     1   --> A              
     e( 72 - 72) =     -4.23032  eV     1   --> A              
     e( 73 - 73) =     -4.04399  eV     1   --> A              
     e( 74 - 74) =     -3.91386  eV     1   --> A              
     e( 75 - 75) =     -3.90000  eV     1   --> A              
     e( 76 - 76) =     -3.86440  eV     1   --> A              
     e( 77 - 77) =     -3.85489  eV     1   --> A              
     e( 78 - 78) =     -3.72424  eV     1   --> A              
     e( 79 - 79) =     -3.65153  eV     1   --> A              
     e( 80 - 80) =     -3.55007  eV     1   --> A              
     e( 81 - 81) =     -3.20511  eV     1   --> A              
     e( 82 - 82) =     -3.15087  eV     1   --> A              
     e( 83 - 83) =     -3.09573  eV     1   --> A              
     e( 84 - 84) =     -2.98381  eV     1   --> A              
     e( 85 - 85) =     -2.93071  eV     1   --> A              
     e( 86 - 86) =     -2.82294  eV     1   --> A              
     e( 87 - 87) =     -2.78580  eV     1   --> A              
     e( 88 - 88) =     -2.62048  eV     1   --> A              
     e( 89 - 89) =     -2.61913  eV     1   --> A              
     e( 90 - 90) =     -2.33385  eV     1   --> A              
     e( 91 - 91) =     -2.25520  eV     1   --> A              
     e( 92 - 92) =     -2.24481  eV     1   --> A              
     e( 93 - 93) =     -2.19196  eV     1   --> A              
     e( 94 - 94) =     -1.94336  eV     1   --> A              
     e( 95 - 95) =     -1.93395  eV     1   --> A              
     e( 96 - 96) =     -1.59496  eV     1   --> A              
     e( 97 - 97) =     -1.48166  eV     1   --> A              
     e( 98 - 98) =     -1.43848  eV     1   --> A              
     e( 99 - 99) =     -1.41942  eV     1   --> A              
     e(100 -100) =     -1.38254  eV     1   --> A              
     e(101 -101) =     -0.45962  eV     1   --> A              
     e(102 -102) =     -0.31536  eV     1   --> A              
     e(103 -103) =     -0.11557  eV     1   --> A              
     e(104 -104) =     -0.02120  eV     1   --> A              
     e(105 -105) =      0.09592  eV     1   --> A              
     e(106 -106) =      0.36801  eV     1   --> A              
     e(107 -107) =      0.43298  eV     1   --> A              
     e(108 -108) =      0.67312  eV     1   --> A              
     e(109 -109) =      0.79250  eV     1   --> A              
     e(110 -110) =      0.81072  eV     1   --> A              
     e(111 -111) =      1.00874  eV     1   --> A              
     e(112 -112) =      1.05526  eV     1   --> A              
     e(113 -113) =      1.19658  eV     1   --> A              
     e(114 -114) =      1.23665  eV     1   --> A              
     e(115 -115) =      1.26154  eV     1   --> A              
     e(116 -116) =      1.27278  eV     1   --> A              
     e(117 -117) =      1.84173  eV     1   --> A              
     e(118 -118) =      1.85111  eV     1   --> A              
     e(119 -119) =      1.89769  eV     1   --> A              
     e(120 -120) =      1.92731  eV     1   --> A              

 **************************************************************************

 **************************************************************************

                    xk=(   0.05000,   0.57735,   0.00000  )

     Band symmetry, C_1 (1)     point group:

     e(  1 -  1) =    -15.80787  eV     1   --> A              
     e(  2 -  2) =    -15.70405  eV     1   --> A              
     e(  3 -  3) =    -15.30067  eV     1   --> A              
     e(  4 -  4) =    -15.14952  eV     1   --> A              
     e(  5 -  5) =    -14.33134  eV     1   --> A              
     e(  6 -  6) =    -14.32588  eV     1   --> A              
     e(  7 -  7) =    -14.19559  eV     1   --> A              
     e(  8 -  8) =    -14.19059  eV     1   --> A              
     e(  9 -  9) =    -13.86063  eV     1   --> A              
     e( 10 - 10) =    -13.76137  eV     1   --> A              
     e( 11 - 11) =    -13.24637  eV     1   --> A              
     e( 12 - 12) =    -13.15044  eV     1   --> A              
     e( 13 - 13) =    -13.05417  eV     1   --> A              
     e( 14 - 14) =    -12.95564  eV     1   --> A              
     e( 15 - 15) =    -12.52641  eV     1   --> A              
     e( 16 - 16) =    -12.46385  eV     1   --> A              
     e( 17 - 17) =    -11.76684  eV     1   --> A              
     e( 18 - 18) =    -11.74800  eV     1   --> A              
     e( 19 - 19) =    -11.27095  eV     1   --> A              
     e( 20 - 20) =    -11.10418  eV     1   --> A              
     e( 21 - 21) =    -10.24869  eV     1   --> A              
     e( 22 - 22) =    -10.23084  eV     1   --> A              
     e( 23 - 23) =    -10.13769  eV     1   --> A              
     e( 24 - 24) =    -10.11641  eV     1   --> A              
     e( 25 - 25) =    -10.08044  eV     1   --> A              
     e( 26 - 26) =     -9.65048  eV     1   --> A              
     e( 27 - 27) =     -9.59187  eV     1   --> A              
     e( 28 - 28) =     -9.51202  eV     1   --> A              
     e( 29 - 29) =     -9.48447  eV     1   --> A              
     e( 30 - 30) =     -9.43707  eV     1   --> A              
     e( 31 - 31) =     -9.39279  eV     1   --> A              
     e( 32 - 32) =     -8.83674  eV     1   --> A              
     e( 33 - 33) =     -8.78549  eV     1   --> A              
     e( 34 - 34) =     -8.26899  eV     1   --> A              
     e( 35 - 35) =     -8.10137  eV     1   --> A              
     e( 36 - 36) =     -8.08071  eV     1   --> A              
     e( 37 - 37) =     -7.91765  eV     1   --> A              
     e( 38 - 38) =     -7.90159  eV     1   --> A              
     e( 39 - 39) =     -7.87557  eV     1   --> A              
     e( 40 - 40) =     -7.86987  eV     1   --> A              
     e( 41 - 41) =     -7.58684  eV     1   --> A              
     e( 42 - 42) =     -7.58087  eV     1   --> A              
     e( 43 - 43) =     -7.48242  eV     1   --> A              
     e( 44 - 44) =     -7.23441  eV     1   --> A              
     e( 45 - 45) =     -6.53779  eV     1   --> A              
     e( 46 - 46) =     -6.26971  eV     1   --> A              
     e( 47 - 47) =     -6.17949  eV     1   --> A              
     e( 48 - 48) =     -6.10437  eV     1   --> A              
     e( 49 - 49) =     -5.95264  eV     1   --> A              
     e( 50 - 50) =     -5.89149  eV     1   --> A              
     e( 51 - 51) =     -5.83398  eV     1   --> A              
     e( 52 - 52) =     -5.68979  eV     1   --> A              
     e( 53 - 53) =     -5.64918  eV     1   --> A              
     e( 54 - 54) =     -5.58825  eV     1   --> A              
     e( 55 - 55) =     -5.31511  eV     1   --> A              
     e( 56 - 56) =     -5.27207  eV     1   --> A              
     e( 57 - 57) =     -5.26563  eV     1   --> A              
     e( 58 - 58) =     -5.24936  eV     1   --> A              
     e( 59 - 59) =     -5.24373  eV     1   --> A              
     e( 60 - 60) =     -5.21528  eV     1   --> A              
     e( 61 - 61) =     -4.76494  eV     1   --> A              
     e( 62 - 62) =     -4.66492  eV     1   --> A              
     e( 63 - 63) =     -4.61380  eV     1   --> A              
     e( 64 - 64) =     -4.60169  eV     1   --> A              
     e( 65 - 65) =     -4.48315  eV     1   --> A              
     e( 66 - 66) =     -4.46415  eV     1   --> A              
     e( 67 - 67) =     -4.45629  eV     1   --> A              
     e( 68 - 68) =     -4.38884  eV     1   --> A              
     e( 69 - 69) =     -4.34346  eV     1   --> A              
     e( 70 - 70) =     -4.33628  eV     1   --> A              
     e( 71 - 71) =     -4.32039  eV     1   --> A              
     e( 72 - 72) =     -4.20607  eV     1   --> A              
     e( 73 - 73) =     -4.04286  eV     1   --> A              
     e( 74 - 74) =     -3.91795  eV     1   --> A              
     e( 75 - 75) =     -3.90088  eV     1   --> A              
     e( 76 - 76) =     -3.85937  eV     1   --> A              
     e( 77 - 77) =     -3.84799  eV     1   --> A              
     e( 78 - 78) =     -3.72389  eV     1   --> A              
     e( 79 - 79) =     -3.65380  eV     1   --> A              
     e( 80 - 80) =     -3.55286  eV     1   --> A              
     e( 81 - 81) =     -3.23118  eV     1   --> A              
     e( 82 - 82) =     -3.16314  eV     1   --> A              
     e( 83 - 83) =     -3.11526  eV     1   --> A              
     e( 84 - 84) =     -2.96393  eV     1   --> A              
     e( 85 - 85) =     -2.93593  eV     1   --> A              
     e( 86 - 86) =     -2.80883  eV     1   --> A              
     e( 87 - 87) =     -2.77005  eV     1   --> A              
     e( 88 - 88) =     -2.61988  eV     1   --> A              
     e( 89 - 89) =     -2.61861  eV     1   --> A              
     e( 90 - 90) =     -2.35437  eV     1   --> A              
     e( 91 - 91) =     -2.26856  eV     1   --> A              
     e( 92 - 92) =     -2.22216  eV     1   --> A              
     e( 93 - 93) =     -2.17837  eV     1   --> A              
     e( 94 - 94) =     -1.94917  eV     1   --> A              
     e( 95 - 95) =     -1.93990  eV     1   --> A              
     e( 96 - 96) =     -1.59022  eV     1   --> A              
     e( 97 - 97) =     -1.49670  eV     1   --> A              
     e( 98 - 98) =     -1.44994  eV     1   --> A              
     e( 99 - 99) =     -1.40771  eV     1   --> A              
     e(100 -100) =     -1.37254  eV     1   --> A              
     e(101 -101) =     -0.46090  eV     1   --> A              
     e(102 -102) =     -0.31693  eV     1   --> A              
     e(103 -103) =     -0.11678  eV     1   --> A              
     e(104 -104) =     -0.02220  eV     1   --> A              
     e(105 -105) =      0.09214  eV     1   --> A              
     e(106 -106) =      0.36231  eV     1   --> A              
     e(107 -107) =      0.44784  eV     1   --> A              
     e(108 -108) =      0.68088  eV     1   --> A              
     e(109 -109) =      0.80237  eV     1   --> A              
     e(110 -110) =      0.82097  eV     1   --> A              
     e(111 -111) =      1.00952  eV     1   --> A              
     e(112 -112) =      1.05175  eV     1   --> A              
     e(113 -113) =      1.20108  eV     1   --> A              
     e(114 -114) =      1.23681  eV     1   --> A              
     e(115 -115) =      1.26798  eV     1   --> A              
     e(116 -116) =      1.27467  eV     1   --> A              
     e(117 -117) =      1.83824  eV     1   --> A              
     e(118 -118) =      1.84330  eV     1   --> A              
     e(119 -119) =      1.89654  eV     1   --> A              
     e(120 -120) =      1.92714  eV     1   --> A              

 **************************************************************************

 **************************************************************************

                    xk=(   0.06667,   0.57735,   0.00000  )

     Band symmetry, C_1 (1)     point group:

     e(  1 -  1) =    -15.80652  eV     1   --> A              
     e(  2 -  2) =    -15.70261  eV     1   --> A              
     e(  3 -  3) =    -15.32398  eV     1   --> A              
     e(  4 -  4) =    -15.12348  eV     1   --> A              
     e(  5 -  5) =    -14.35292  eV     1   --> A              
     e(  6 -  6) =    -14.34746  eV     1   --> A              
     e(  7 -  7) =    -14.17228  eV     1   --> A              
     e(  8 -  8) =    -14.16730  eV     1   --> A              
     e(  9 -  9) =    -13.85901  eV     1   --> A              
     e( 10 - 10) =    -13.75992  eV     1   --> A              
     e( 11 - 11) =    -13.27438  eV     1   --> A              
     e( 12 - 12) =    -13.17471  eV     1   --> A              
     e( 13 - 13) =    -13.03521  eV     1   --> A              
     e( 14 - 14) =    -12.93241  eV     1   --> A              
     e( 15 - 15) =    -12.53699  eV     1   --> A              
     e( 16 - 16) =    -12.45420  eV     1   --> A              
     e( 17 - 17) =    -11.76515  eV     1   --> A              
     e( 18 - 18) =    -11.74631  eV     1   --> A              
     e( 19 - 19) =    -11.29725  eV     1   --> A              
     e( 20 - 20) =    -11.07506  eV     1   --> A              
     e( 21 - 21) =    -10.26799  eV     1   --> A              
     e( 22 - 22) =    -10.25010  eV     1   --> A              
     e( 23 - 23) =    -10.12321  eV     1   --> A              
     e( 24 - 24) =    -10.09947  eV     1   --> A              
     e( 25 - 25) =    -10.07632  eV     1   --> A              
     e( 26 - 26) =     -9.67107  eV     1   --> A              
     e( 27 - 27) =     -9.61086  eV     1   --> A              
     e( 28 - 28) =     -9.52559  eV     1   --> A              
     e( 29 - 29) =     -9.46570  eV     1   --> A              
     e( 30 - 30) =     -9.41484  eV     1   --> A              
     e( 31 - 31) =     -9.36572  eV     1   --> A              
     e( 32 - 32) =     -8.83597  eV     1   --> A              
     e( 33 - 33) =     -8.78467  eV     1   --> A              
     e( 34 - 34) =     -8.26991  eV     1   --> A              
     e( 35 - 35) =     -8.13067  eV     1   --> A              
     e( 36 - 36) =     -8.10938  eV     1   --> A              
     e( 37 - 37) =     -7.92480  eV     1   --> A              
     e( 38 - 38) =     -7.91932  eV     1   --> A              
     e( 39 - 39) =     -7.88582  eV     1   --> A              
     e( 40 - 40) =     -7.87003  eV     1   --> A              
     e( 41 - 41) =     -7.53995  eV     1   --> A              
     e( 42 - 42) =     -7.53393  eV     1   --> A              
     e( 43 - 43) =     -7.51869  eV     1   --> A              
     e( 44 - 44) =     -7.18884  eV     1   --> A              
     e( 45 - 45) =     -6.58743  eV     1   --> A              
     e( 46 - 46) =     -6.23481  eV     1   --> A              
     e( 47 - 47) =     -6.17762  eV     1   --> A              
     e( 48 - 48) =     -6.10380  eV     1   --> A              
     e( 49 - 49) =     -6.00542  eV     1   --> A              
     e( 50 - 50) =     -5.92070  eV     1   --> A              
     e( 51 - 51) =     -5.86402  eV     1   --> A              
     e( 52 - 52) =     -5.66037  eV     1   --> A              
     e( 53 - 53) =     -5.61638  eV     1   --> A              
     e( 54 - 54) =     -5.53587  eV     1   --> A              
     e( 55 - 55) =     -5.31645  eV     1   --> A              
     e( 56 - 56) =     -5.26602  eV     1   --> A              
     e( 57 - 57) =     -5.26461  eV     1   --> A              
     e( 58 - 58) =     -5.24665  eV     1   --> A              
     e( 59 - 59) =     -5.24127  eV     1   --> A              
     e( 60 - 60) =     -5.20139  eV     1   --> A              
     e( 61 - 61) =     -4.77232  eV     1   --> A              
     e( 62 - 62) =     -4.67274  eV     1   --> A              
     e( 63 - 63) =     -4.61920  eV     1   --> A              
     e( 64 - 64) =     -4.60624  eV     1   --> A              
     e( 65 - 65) =     -4.50490  eV     1   --> A              
     e( 66 - 66) =     -4.48445  eV     1   --> A              
     e( 67 - 67) =     -4.47707  eV     1   --> A              
     e( 68 - 68) =     -4.39900  eV     1   --> A              
     e( 69 - 69) =     -4.34419  eV     1   --> A              
     e( 70 - 70) =     -4.31585  eV     1   --> A              
     e( 71 - 71) =     -4.29872  eV     1   --> A              
     e( 72 - 72) =     -4.17950  eV     1   --> A              
     e( 73 - 73) =     -4.04126  eV     1   --> A              
     e( 74 - 74) =     -3.92154  eV     1   --> A              
     e( 75 - 75) =     -3.90247  eV     1   --> A              
     e( 76 - 76) =     -3.85224  eV     1   --> A              
     e( 77 - 77) =     -3.84041  eV     1   --> A              
     e( 78 - 78) =     -3.72340  eV     1   --> A              
     e( 79 - 79) =     -3.65745  eV     1   --> A              
     e( 80 - 80) =     -3.55729  eV     1   --> A              
     e( 81 - 81) =     -3.26074  eV     1   --> A              
     e( 82 - 82) =     -3.18347  eV     1   --> A              
     e( 83 - 83) =     -3.13499  eV     1   --> A              
     e( 84 - 84) =     -2.96227  eV     1   --> A              
     e( 85 - 85) =     -2.92636  eV     1   --> A              
     e( 86 - 86) =     -2.78903  eV     1   --> A              
     e( 87 - 87) =     -2.75139  eV     1   --> A              
     e( 88 - 88) =     -2.61920  eV     1   --> A              
     e( 89 - 89) =     -2.61803  eV     1   --> A              
     e( 90 - 90) =     -2.37425  eV     1   --> A              
     e( 91 - 91) =     -2.28272  eV     1   --> A              
     e( 92 - 92) =     -2.19872  eV     1   --> A              
     e( 93 - 93) =     -2.16520  eV     1   --> A              
     e( 94 - 94) =     -1.95716  eV     1   --> A              
     e( 95 - 95) =     -1.94808  eV     1   --> A              
     e( 96 - 96) =     -1.58393  eV     1   --> A              
     e( 97 - 97) =     -1.51198  eV     1   --> A              
     e( 98 - 98) =     -1.46282  eV     1   --> A              
     e( 99 - 99) =     -1.39558  eV     1   --> A              
     e(100 -100) =     -1.36276  eV     1   --> A              
     e(101 -101) =     -0.46270  eV     1   --> A              
     e(102 -102) =     -0.31912  eV     1   --> A              
     e(103 -103) =     -0.11849  eV     1   --> A              
     e(104 -104) =     -0.02356  eV     1   --> A              
     e(105 -105) =      0.08706  eV     1   --> A              
     e(106 -106) =      0.35711  eV     1   --> A              
     e(107 -107) =      0.46528  eV     1   --> A              
     e(108 -108) =      0.69169  eV     1   --> A              
     e(109 -109) =      0.81595  eV     1   --> A              
     e(110 -110) =      0.83509  eV     1   --> A              
     e(111 -111) =      1.01068  eV     1   --> A              
     e(112 -112) =      1.04752  eV     1   --> A              
     e(113 -113) =      1.20665  eV     1   --> A              
     e(114 -114) =      1.23722  eV     1   --> A              
     e(115 -115) =      1.27046  eV     1   --> A              
     e(116 -116) =      1.28339  eV     1   --> A              
     e(117 -117) =      1.82537  eV     1   --> A              
     e(118 -118) =      1.84209  eV     1   --> A              
     e(119 -119) =      1.89365  eV     1   --> A              
     e(120 -120) =      1.92448  eV     1   --> A              

 **************************************************************************

 **************************************************************************

                    xk=(   0.08333,   0.57735,   0.00000  )

     Band symmetry, C_1 (1)     point group:

     e(  1 -  1) =    -15.80475  eV     1   --> A              
     e(  2 -  2) =    -15.70073  eV     1   --> A              
     e(  3 -  3) =    -15.34676  eV     1   --> A              
     e(  4 -  4) =    -15.09681  eV     1   --> A              
     e(  5 -  5) =    -14.37428  eV     1   --> A              
     e(  6 -  6) =    -14.36880  eV     1   --> A              
     e(  7 -  7) =    -14.14876  eV     1   --> A              
     e(  8 -  8) =    -14.14380  eV     1   --> A              
     e(  9 -  9) =    -13.85697  eV     1   --> A              
     e( 10 - 10) =    -13.75810  eV     1   --> A              
     e( 11 - 11) =    -13.30351  eV     1   --> A              
     e( 12 - 12) =    -13.20230  eV     1   --> A              
     e( 13 - 13) =    -13.01439  eV     1   --> A              
     e( 14 - 14) =    -12.90946  eV     1   --> A              
     e( 15 - 15) =    -12.54755  eV     1   --> A              
     e( 16 - 16) =    -12.44475  eV     1   --> A              
     e( 17 - 17) =    -11.76296  eV     1   --> A              
     e( 18 - 18) =    -11.74412  eV     1   --> A              
     e( 19 - 19) =    -11.32329  eV     1   --> A              
     e( 20 - 20) =    -11.04551  eV     1   --> A              
     e( 21 - 21) =    -10.28748  eV     1   --> A              
     e( 22 - 22) =    -10.26958  eV     1   --> A              
     e( 23 - 23) =    -10.11046  eV     1   --> A              
     e( 24 - 24) =    -10.08303  eV     1   --> A              
     e( 25 - 25) =    -10.07027  eV     1   --> A              
     e( 26 - 26) =     -9.69041  eV     1   --> A              
     e( 27 - 27) =     -9.62973  eV     1   --> A              
     e( 28 - 28) =     -9.53951  eV     1   --> A              
     e( 29 - 29) =     -9.44819  eV     1   --> A              
     e( 30 - 30) =     -9.38946  eV     1   --> A              
     e( 31 - 31) =     -9.33533  eV     1   --> A              
     e( 32 - 32) =     -8.83499  eV     1   --> A              
     e( 33 - 33) =     -8.78362  eV     1   --> A              
     e( 34 - 34) =     -8.27115  eV     1   --> A              
     e( 35 - 35) =     -8.15956  eV     1   --> A              
     e( 36 - 36) =     -8.13779  eV     1   --> A              
     e( 37 - 37) =     -7.97291  eV     1   --> A              
     e( 38 - 38) =     -7.96708  eV     1   --> A              
     e( 39 - 39) =     -7.85459  eV     1   --> A              
     e( 40 - 40) =     -7.83933  eV     1   --> A              
     e( 41 - 41) =     -7.55301  eV     1   --> A              
     e( 42 - 42) =     -7.49402  eV     1   --> A              
     e( 43 - 43) =     -7.48798  eV     1   --> A              
     e( 44 - 44) =     -7.14225  eV     1   --> A              
     e( 45 - 45) =     -6.63761  eV     1   --> A              
     e( 46 - 46) =     -6.20925  eV     1   --> A              
     e( 47 - 47) =     -6.17168  eV     1   --> A              
     e( 48 - 48) =     -6.10384  eV     1   --> A              
     e( 49 - 49) =     -6.05636  eV     1   --> A              
     e( 50 - 50) =     -5.95015  eV     1   --> A              
     e( 51 - 51) =     -5.89421  eV     1   --> A              
     e( 52 - 52) =     -5.63017  eV     1   --> A              
     e( 53 - 53) =     -5.58467  eV     1   --> A              
     e( 54 - 54) =     -5.48156  eV     1   --> A              
     e( 55 - 55) =     -5.31467  eV     1   --> A              
     e( 56 - 56) =     -5.26270  eV     1   --> A              
     e( 57 - 57) =     -5.25964  eV     1   --> A              
     e( 58 - 58) =     -5.24197  eV     1   --> A              
     e( 59 - 59) =     -5.23710  eV     1   --> A              
     e( 60 - 60) =     -5.18405  eV     1   --> A              
     e( 61 - 61) =     -4.78390  eV     1   --> A              
     e( 62 - 62) =     -4.68474  eV     1   --> A              
     e( 63 - 63) =     -4.62667  eV     1   --> A              
     e( 64 - 64) =     -4.61205  eV     1   --> A              
     e( 65 - 65) =     -4.52950  eV     1   --> A              
     e( 66 - 66) =     -4.50565  eV     1   --> A              
     e( 67 - 67) =     -4.49802  eV     1   --> A              
     e( 68 - 68) =     -4.40787  eV     1   --> A              
     e( 69 - 69) =     -4.34889  eV     1   --> A              
     e( 70 - 70) =     -4.29318  eV     1   --> A              
     e( 71 - 71) =     -4.27538  eV     1   --> A              
     e( 72 - 72) =     -4.15181  eV     1   --> A              
     e( 73 - 73) =     -4.03888  eV     1   --> A              
     e( 74 - 74) =     -3.92435  eV     1   --> A              
     e( 75 - 75) =     -3.90402  eV     1   --> A              
     e( 76 - 76) =     -3.84379  eV     1   --> A              
     e( 77 - 77) =     -3.83227  eV     1   --> A              
     e( 78 - 78) =     -3.72244  eV     1   --> A              
     e( 79 - 79) =     -3.65986  eV     1   --> A              
     e( 80 - 80) =     -3.56068  eV     1   --> A              
     e( 81 - 81) =     -3.29251  eV     1   --> A              
     e( 82 - 82) =     -3.20698  eV     1   --> A              
     e( 83 - 83) =     -3.15487  eV     1   --> A              
     e( 84 - 84) =     -2.97629  eV     1   --> A              
     e( 85 - 85) =     -2.90483  eV     1   --> A              
     e( 86 - 86) =     -2.76430  eV     1   --> A              
     e( 87 - 87) =     -2.73083  eV     1   --> A              
     e( 88 - 88) =     -2.61831  eV     1   --> A              
     e( 89 - 89) =     -2.61726  eV     1   --> A              
     e( 90 - 90) =     -2.39354  eV     1   --> A              
     e( 91 - 91) =     -2.29689  eV     1   --> A              
     e( 92 - 92) =     -2.17445  eV     1   --> A              
     e( 93 - 93) =     -2.15194  eV     1   --> A              
     e( 94 - 94) =     -1.96718  eV     1   --> A              
     e( 95 - 95) =     -1.95830  eV     1   --> A              
     e( 96 - 96) =     -1.57679  eV     1   --> A              
     e( 97 - 97) =     -1.52706  eV     1   --> A              
     e( 98 - 98) =     -1.47624  eV     1   --> A              
     e( 99 - 99) =     -1.38384  eV     1   --> A              
     e(100 -100) =     -1.35343  eV     1   --> A              
     e(101 -101) =     -0.46484  eV     1   --> A              
     e(102 -102) =     -0.32171  eV     1   --> A              
     e(103 -103) =     -0.12050  eV     1   --> A              
     e(104 -104) =     -0.02502  eV     1   --> A              
     e(105 -105) =      0.08109  eV     1   --> A              
     e(106 -106) =      0.35269  eV     1   --> A              
     e(107 -107) =      0.48489  eV     1   --> A              
     e(108 -108) =      0.70568  eV     1   --> A              
     e(109 -109) =      0.83300  eV     1   --> A              
     e(110 -110) =      0.85295  eV     1   --> A              
     e(111 -111) =      1.01235  eV     1   --> A              
     e(112 -112) =      1.04310  eV     1   --> A              
     e(113 -113) =      1.21267  eV     1   --> A              
     e(114 -114) =      1.23817  eV     1   --> A              
     e(115 -115) =      1.27067  eV     1   --> A              
     e(116 -116) =      1.29723  eV     1   --> A              
     e(117 -117) =      1.80983  eV     1   --> A              
     e(118 -118) =      1.84149  eV     1   --> A              
     e(119 -119) =      1.88665  eV     1   --> A              
     e(120 -120) =      1.91970  eV     1   --> A              

 **************************************************************************

 **************************************************************************

                    xk=(   0.10000,   0.57735,   0.00000  )

     Band symmetry, C_1 (1)     point group:

     e(  1 -  1) =    -15.80266  eV     1   --> A              
     e(  2 -  2) =    -15.69852  eV     1   --> A              
     e(  3 -  3) =    -15.36923  eV     1   --> A              
     e(  4 -  4) =    -15.06967  eV     1   --> A              
     e(  5 -  5) =    -14.39525  eV     1   --> A              
     e(  6 -  6) =    -14.38976  eV     1   --> A              
     e(  7 -  7) =    -14.12505  eV     1   --> A              
     e(  8 -  8) =    -14.12008  eV     1   --> A              
     e(  9 -  9) =    -13.85435  eV     1   --> A              
     e( 10 - 10) =    -13.75577  eV     1   --> A              
     e( 11 - 11) =    -13.33349  eV     1   --> A              
     e( 12 - 12) =    -13.23161  eV     1   --> A              
     e( 13 - 13) =    -12.99346  eV     1   --> A              
     e( 14 - 14) =    -12.88721  eV     1   --> A              
     e( 15 - 15) =    -12.55791  eV     1   --> A              
     e( 16 - 16) =    -12.43558  eV     1   --> A              
     e( 17 - 17) =    -11.76026  eV     1   --> A              
     e( 18 - 18) =    -11.74143  eV     1   --> A              
     e( 19 - 19) =    -11.34884  eV     1   --> A              
     e( 20 - 20) =    -11.01557  eV     1   --> A              
     e( 21 - 21) =    -10.30710  eV     1   --> A              
     e( 22 - 22) =    -10.28920  eV     1   --> A              
     e( 23 - 23) =    -10.10001  eV     1   --> A              
     e( 24 - 24) =    -10.06756  eV     1   --> A              
     e( 25 - 25) =    -10.06176  eV     1   --> A              
     e( 26 - 26) =     -9.70899  eV     1   --> A              
     e( 27 - 27) =     -9.64829  eV     1   --> A              
     e( 28 - 28) =     -9.55314  eV     1   --> A              
     e( 29 - 29) =     -9.43295  eV     1   --> A              
     e( 30 - 30) =     -9.36077  eV     1   --> A              
     e( 31 - 31) =     -9.30306  eV     1   --> A              
     e( 32 - 32) =     -8.83388  eV     1   --> A              
     e( 33 - 33) =     -8.78243  eV     1   --> A              
     e( 34 - 34) =     -8.27274  eV     1   --> A              
     e( 35 - 35) =     -8.18812  eV     1   --> A              
     e( 36 - 36) =     -8.16616  eV     1   --> A              
     e( 37 - 37) =     -8.02056  eV     1   --> A              
     e( 38 - 38) =     -8.01421  eV     1   --> A              
     e( 39 - 39) =     -7.82318  eV     1   --> A              
     e( 40 - 40) =     -7.80842  eV     1   --> A              
     e( 41 - 41) =     -7.58495  eV     1   --> A              
     e( 42 - 42) =     -7.44857  eV     1   --> A              
     e( 43 - 43) =     -7.44256  eV     1   --> A              
     e( 44 - 44) =     -7.09377  eV     1   --> A              
     e( 45 - 45) =     -6.68838  eV     1   --> A              
     e( 46 - 46) =     -6.20371  eV     1   --> A              
     e( 47 - 47) =     -6.15726  eV     1   --> A              
     e( 48 - 48) =     -6.11185  eV     1   --> A              
     e( 49 - 49) =     -6.09051  eV     1   --> A              
     e( 50 - 50) =     -5.98009  eV     1   --> A              
     e( 51 - 51) =     -5.92471  eV     1   --> A              
     e( 52 - 52) =     -5.59987  eV     1   --> A              
     e( 53 - 53) =     -5.55389  eV     1   --> A              
     e( 54 - 54) =     -5.42835  eV     1   --> A              
     e( 55 - 55) =     -5.30905  eV     1   --> A              
     e( 56 - 56) =     -5.25883  eV     1   --> A              
     e( 57 - 57) =     -5.25248  eV     1   --> A              
     e( 58 - 58) =     -5.23505  eV     1   --> A              
     e( 59 - 59) =     -5.23120  eV     1   --> A              
     e( 60 - 60) =     -5.16446  eV     1   --> A              
     e( 61 - 61) =     -4.79614  eV     1   --> A              
     e( 62 - 62) =     -4.69746  eV     1   --> A              
     e( 63 - 63) =     -4.63683  eV     1   --> A              
     e( 64 - 64) =     -4.61920  eV     1   --> A              
     e( 65 - 65) =     -4.55515  eV     1   --> A              
     e( 66 - 66) =     -4.52596  eV     1   --> A              
     e( 67 - 67) =     -4.51783  eV     1   --> A              
     e( 68 - 68) =     -4.41641  eV     1   --> A              
     e( 69 - 69) =     -4.35549  eV     1   --> A              
     e( 70 - 70) =     -4.27028  eV     1   --> A              
     e( 71 - 71) =     -4.25172  eV     1   --> A              
     e( 72 - 72) =     -4.12469  eV     1   --> A              
     e( 73 - 73) =     -4.03663  eV     1   --> A              
     e( 74 - 74) =     -3.92619  eV     1   --> A              
     e( 75 - 75) =     -3.90506  eV     1   --> A              
     e( 76 - 76) =     -3.83466  eV     1   --> A              
     e( 77 - 77) =     -3.82389  eV     1   --> A              
     e( 78 - 78) =     -3.72232  eV     1   --> A              
     e( 79 - 79) =     -3.66417  eV     1   --> A              
     e( 80 - 80) =     -3.56621  eV     1   --> A              
     e( 81 - 81) =     -3.32578  eV     1   --> A              
     e( 82 - 82) =     -3.23213  eV     1   --> A              
     e( 83 - 83) =     -3.17613  eV     1   --> A              
     e( 84 - 84) =     -2.99535  eV     1   --> A              
     e( 85 - 85) =     -2.88222  eV     1   --> A              
     e( 86 - 86) =     -2.73617  eV     1   --> A              
     e( 87 - 87) =     -2.70934  eV     1   --> A              
     e( 88 - 88) =     -2.61728  eV     1   --> A              
     e( 89 - 89) =     -2.61636  eV     1   --> A              
     e( 90 - 90) =     -2.41208  eV     1   --> A              
     e( 91 - 91) =     -2.30995  eV     1   --> A              
     e( 92 - 92) =     -2.14984  eV     1   --> A              
     e( 93 - 93) =     -2.13822  eV     1   --> A              
     e( 94 - 94) =     -1.97907  eV     1   --> A              
     e( 95 - 95) =     -1.97039  eV     1   --> A              
     e( 96 - 96) =     -1.57116  eV     1   --> A              
     e( 97 - 97) =     -1.53978  eV     1   --> A              
     e( 98 - 98) =     -1.48937  eV     1   --> A              
     e( 99 - 99) =     -1.37288  eV     1   --> A              
     e(100 -100) =     -1.34485  eV     1   --> A              
     e(101 -101) =     -0.46736  eV     1   --> A              
     e(102 -102) =     -0.32470  eV     1   --> A              
     e(103 -103) =     -0.12302  eV     1   --> A              
     e(104 -104) =     -0.02661  eV     1   --> A              
     e(105 -105) =      0.07436  eV     1   --> A              
     e(106 -106) =      0.34899  eV     1   --> A              
     e(107 -107) =      0.50601  eV     1   --> A              
     e(108 -108) =      0.72271  eV     1   --> A              
     e(109 -109) =      0.85315  eV     1   --> A              
     e(110 -110) =      0.87427  eV     1   --> A              
     e(111 -111) =      1.01445  eV     1   --> A              
     e(112 -112) =      1.03904  eV     1   --> A              
     e(113 -113) =      1.21831  eV     1   --> A              
     e(114 -114) =      1.23998  eV     1   --> A              
     e(115 -115) =      1.27042  eV     1   --> A              
     e(116 -116) =      1.31394  eV     1   --> A              
     e(117 -117) =      1.79268  eV     1   --> A              
     e(118 -118) =      1.84014  eV     1   --> A              
     e(119 -119) =      1.87257  eV     1   --> A              
     e(120 -120) =      1.91482  eV     1   --> A              

 **************************************************************************

 **************************************************************************

                    xk=(   0.11667,   0.57735,   0.00000  )

     Band symmetry, C_1 (1)     point group:

     e(  1 -  1) =    -15.80030  eV     1   --> A              
     e(  2 -  2) =    -15.69599  eV     1   --> A              
     e(  3 -  3) =    -15.39116  eV     1   --> A              
     e(  4 -  4) =    -15.04218  eV     1   --> A              
     e(  5 -  5) =    -14.41599  eV     1   --> A              
     e(  6 -  6) =    -14.41049  eV     1   --> A              
     e(  7 -  7) =    -14.10136  eV     1   --> A              
     e(  8 -  8) =    -14.09635  eV     1   --> A              
     e(  9 -  9) =    -13.85113  eV     1   --> A              
     e( 10 - 10) =    -13.75293  eV     1   --> A              
     e( 11 - 11) =    -13.36410  eV     1   --> A              
     e( 12 - 12) =    -13.26195  eV     1   --> A              
     e( 13 - 13) =    -12.97303  eV     1   --> A              
     e( 14 - 14) =    -12.86584  eV     1   --> A              
     e( 15 - 15) =    -12.56830  eV     1   --> A              
     e( 16 - 16) =    -12.42687  eV     1   --> A              
     e( 17 - 17) =    -11.75715  eV     1   --> A              
     e( 18 - 18) =    -11.73831  eV     1   --> A              
     e( 19 - 19) =    -11.37401  eV     1   --> A              
     e( 20 - 20) =    -10.98549  eV     1   --> A              
     e( 21 - 21) =    -10.32680  eV     1   --> A              
     e( 22 - 22) =    -10.30887  eV     1   --> A              
     e( 23 - 23) =    -10.09159  eV     1   --> A              
     e( 24 - 24) =    -10.05396  eV     1   --> A              
     e( 25 - 25) =    -10.05029  eV     1   --> A              
     e( 26 - 26) =     -9.72575  eV     1   --> A              
     e( 27 - 27) =     -9.66531  eV     1   --> A              
     e( 28 - 28) =     -9.56723  eV     1   --> A              
     e( 29 - 29) =     -9.42083  eV     1   --> A              
     e( 30 - 30) =     -9.32946  eV     1   --> A              
     e( 31 - 31) =     -9.26922  eV     1   --> A              
     e( 32 - 32) =     -8.83247  eV     1   --> A              
     e( 33 - 33) =     -8.78090  eV     1   --> A              
     e( 34 - 34) =     -8.27472  eV     1   --> A              
     e( 35 - 35) =     -8.21655  eV     1   --> A              
     e( 36 - 36) =     -8.19473  eV     1   --> A              
     e( 37 - 37) =     -8.06632  eV     1   --> A              
     e( 38 - 38) =     -8.05909  eV     1   --> A              
     e( 39 - 39) =     -7.79186  eV     1   --> A              
     e( 40 - 40) =     -7.77754  eV     1   --> A              
     e( 41 - 41) =     -7.61591  eV     1   --> A              
     e( 42 - 42) =     -7.40466  eV     1   --> A              
     e( 43 - 43) =     -7.39872  eV     1   --> A              
     e( 44 - 44) =     -7.04613  eV     1   --> A              
     e( 45 - 45) =     -6.73977  eV     1   --> A              
     e( 46 - 46) =     -6.22304  eV     1   --> A              
     e( 47 - 47) =     -6.15415  eV     1   --> A              
     e( 48 - 48) =     -6.11759  eV     1   --> A              
     e( 49 - 49) =     -6.09490  eV     1   --> A              
     e( 50 - 50) =     -6.00989  eV     1   --> A              
     e( 51 - 51) =     -5.95500  eV     1   --> A              
     e( 52 - 52) =     -5.56895  eV     1   --> A              
     e( 53 - 53) =     -5.52317  eV     1   --> A              
     e( 54 - 54) =     -5.37657  eV     1   --> A              
     e( 55 - 55) =     -5.29938  eV     1   --> A              
     e( 56 - 56) =     -5.25473  eV     1   --> A              
     e( 57 - 57) =     -5.24452  eV     1   --> A              
     e( 58 - 58) =     -5.22702  eV     1   --> A              
     e( 59 - 59) =     -5.22466  eV     1   --> A              
     e( 60 - 60) =     -5.14329  eV     1   --> A              
     e( 61 - 61) =     -4.81083  eV     1   --> A              
     e( 62 - 62) =     -4.71265  eV     1   --> A              
     e( 63 - 63) =     -4.65091  eV     1   --> A              
     e( 64 - 64) =     -4.62774  eV     1   --> A              
     e( 65 - 65) =     -4.58072  eV     1   --> A              
     e( 66 - 66) =     -4.54574  eV     1   --> A              
     e( 67 - 67) =     -4.53730  eV     1   --> A              
     e( 68 - 68) =     -4.42595  eV     1   --> A              
     e( 69 - 69) =     -4.36442  eV     1   --> A              
     e( 70 - 70) =     -4.24720  eV     1   --> A              
     e( 71 - 71) =     -4.22780  eV     1   --> A              
     e( 72 - 72) =     -4.09720  eV     1   --> A              
     e( 73 - 73) =     -4.03376  eV     1   --> A              
     e( 74 - 74) =     -3.92705  eV     1   --> A              
     e( 75 - 75) =     -3.90539  eV     1   --> A              
     e( 76 - 76) =     -3.82536  eV     1   --> A              
     e( 77 - 77) =     -3.81552  eV     1   --> A              
     e( 78 - 78) =     -3.72202  eV     1   --> A              
     e( 79 - 79) =     -3.66982  eV     1   --> A              
     e( 80 - 80) =     -3.57331  eV     1   --> A              
     e( 81 - 81) =     -3.36002  eV     1   --> A              
     e( 82 - 82) =     -3.25818  eV     1   --> A              
     e( 83 - 83) =     -3.19897  eV     1   --> A              
     e( 84 - 84) =     -3.01770  eV     1   --> A              
     e( 85 - 85) =     -2.86007  eV     1   --> A              
     e( 86 - 86) =     -2.70585  eV     1   --> A              
     e( 87 - 87) =     -2.68709  eV     1   --> A              
     e( 88 - 88) =     -2.61611  eV     1   --> A              
     e( 89 - 89) =     -2.61534  eV     1   --> A              
     e( 90 - 90) =     -2.42977  eV     1   --> A              
     e( 91 - 91) =     -2.32406  eV     1   --> A              
     e( 92 - 92) =     -2.12761  eV     1   --> A              
     e( 93 - 93) =     -2.12361  eV     1   --> A              
     e( 94 - 94) =     -1.99262  eV     1   --> A              
     e( 95 - 95) =     -1.98407  eV     1   --> A              
     e( 96 - 96) =     -1.57333  eV     1   --> A              
     e( 97 - 97) =     -1.54451  eV     1   --> A              
     e( 98 - 98) =     -1.50180  eV     1   --> A              
     e( 99 - 99) =     -1.36283  eV     1   --> A              
     e(100 -100) =     -1.33721  eV     1   --> A              
     e(101 -101) =     -0.47025  eV     1   --> A              
     e(102 -102) =     -0.32812  eV     1   --> A              
     e(103 -103) =     -0.12585  eV     1   --> A              
     e(104 -104) =     -0.02833  eV     1   --> A              
     e(105 -105) =      0.06701  eV     1   --> A              
     e(106 -106) =      0.34580  eV     1   --> A              
     e(107 -107) =      0.52829  eV     1   --> A              
     e(108 -108) =      0.74275  eV     1   --> A              
     e(109 -109) =      0.87597  eV     1   --> A              
     e(110 -110) =      0.89871  eV     1   --> A              
     e(111 -111) =      1.01687  eV     1   --> A              
     e(112 -112) =      1.03595  eV     1   --> A              
     e(113 -113) =      1.22254  eV     1   --> A              
     e(114 -114) =      1.24343  eV     1   --> A              
     e(115 -115) =      1.26990  eV     1   --> A              
     e(116 -116) =      1.33284  eV     1   --> A              
     e(117 -117) =      1.77419  eV     1   --> A              
     e(118 -118) =      1.83662  eV     1   --> A              
     e(119 -119) =      1.85273  eV     1   --> A              
     e(120 -120) =      1.91052  eV     1   --> A              

 **************************************************************************

 **************************************************************************

                    xk=(   0.13333,   0.57735,   0.00000  )

     Band symmetry, C_1 (1)     point group:

     e(  1 -  1) =    -15.79756  eV     1   --> A              
     e(  2 -  2) =    -15.69307  eV     1   --> A              
     e(  3 -  3) =    -15.41264  eV     1   --> A              
     e(  4 -  4) =    -15.01424  eV     1   --> A              
     e(  5 -  5) =    -14.43639  eV     1   --> A              
     e(  6 -  6) =    -14.43087  eV     1   --> A              
     e(  7 -  7) =    -14.07757  eV     1   --> A              
     e(  8 -  8) =    -14.07245  eV     1   --> A              
     e(  9 -  9) =    -13.84745  eV     1   --> A              
     e( 10 - 10) =    -13.74973  eV     1   --> A              
     e( 11 - 11) =    -13.39519  eV     1   --> A              
     e( 12 - 12) =    -13.29299  eV     1   --> A              
     e( 13 - 13) =    -12.95345  eV     1   --> A              
     e( 14 - 14) =    -12.84550  eV     1   --> A              
     e( 15 - 15) =    -12.57846  eV     1   --> A              
     e( 16 - 16) =    -12.41840  eV     1   --> A              
     e( 17 - 17) =    -11.75352  eV     1   --> A              
     e( 18 - 18) =    -11.73469  eV     1   --> A              
     e( 19 - 19) =    -11.39877  eV     1   --> A              
     e( 20 - 20) =    -10.95488  eV     1   --> A              
     e( 21 - 21) =    -10.34643  eV     1   --> A              
     e( 22 - 22) =    -10.32848  eV     1   --> A              
     e( 23 - 23) =    -10.08457  eV     1   --> A              
     e( 24 - 24) =    -10.04223  eV     1   --> A              
     e( 25 - 25) =    -10.03695  eV     1   --> A              
     e( 26 - 26) =     -9.74163  eV     1   --> A              
     e( 27 - 27) =     -9.68158  eV     1   --> A              
     e( 28 - 28) =     -9.58125  eV     1   --> A              
     e( 29 - 29) =     -9.40983  eV     1   --> A              
     e( 30 - 30) =     -9.29574  eV     1   --> A              
     e( 31 - 31) =     -9.23382  eV     1   --> A              
     e( 32 - 32) =     -8.83107  eV     1   --> A              
     e( 33 - 33) =     -8.77939  eV     1   --> A              
     e( 34 - 34) =     -8.27786  eV     1   --> A              
     e( 35 - 35) =     -8.24516  eV     1   --> A              
     e( 36 - 36) =     -8.22457  eV     1   --> A              
     e( 37 - 37) =     -8.11118  eV     1   --> A              
     e( 38 - 38) =     -8.10252  eV     1   --> A              
     e( 39 - 39) =     -7.76058  eV     1   --> A              
     e( 40 - 40) =     -7.74662  eV     1   --> A              
     e( 41 - 41) =     -7.64353  eV     1   --> A              
     e( 42 - 42) =     -7.36096  eV     1   --> A              
     e( 43 - 43) =     -7.35510  eV     1   --> A              
     e( 44 - 44) =     -6.99694  eV     1   --> A              
     e( 45 - 45) =     -6.79135  eV     1   --> A              
     e( 46 - 46) =     -6.26428  eV     1   --> A              
     e( 47 - 47) =     -6.16005  eV     1   --> A              
     e( 48 - 48) =     -6.10099  eV     1   --> A              
     e( 49 - 49) =     -6.09353  eV     1   --> A              
     e( 50 - 50) =     -6.03977  eV     1   --> A              
     e( 51 - 51) =     -5.98531  eV     1   --> A              
     e( 52 - 52) =     -5.53853  eV     1   --> A              
     e( 53 - 53) =     -5.49340  eV     1   --> A              
     e( 54 - 54) =     -5.32784  eV     1   --> A              
     e( 55 - 55) =     -5.28574  eV     1   --> A              
     e( 56 - 56) =     -5.24914  eV     1   --> A              
     e( 57 - 57) =     -5.23494  eV     1   --> A              
     e( 58 - 58) =     -5.21883  eV     1   --> A              
     e( 59 - 59) =     -5.21348  eV     1   --> A              
     e( 60 - 60) =     -5.12074  eV     1   --> A              
     e( 61 - 61) =     -4.82708  eV     1   --> A              
     e( 62 - 62) =     -4.72942  eV     1   --> A              
     e( 63 - 63) =     -4.66976  eV     1   --> A              
     e( 64 - 64) =     -4.63751  eV     1   --> A              
     e( 65 - 65) =     -4.60392  eV     1   --> A              
     e( 66 - 66) =     -4.56482  eV     1   --> A              
     e( 67 - 67) =     -4.55622  eV     1   --> A              
     e( 68 - 68) =     -4.43526  eV     1   --> A              
     e( 69 - 69) =     -4.37387  eV     1   --> A              
     e( 70 - 70) =     -4.22354  eV     1   --> A              
     e( 71 - 71) =     -4.20321  eV     1   --> A              
     e( 72 - 72) =     -4.06923  eV     1   --> A              
     e( 73 - 73) =     -4.03052  eV     1   --> A              
     e( 74 - 74) =     -3.92681  eV     1   --> A              
     e( 75 - 75) =     -3.90484  eV     1   --> A              
     e( 76 - 76) =     -3.81626  eV     1   --> A              
     e( 77 - 77) =     -3.80729  eV     1   --> A              
     e( 78 - 78) =     -3.72208  eV     1   --> A              
     e( 79 - 79) =     -3.67732  eV     1   --> A              
     e( 80 - 80) =     -3.58247  eV     1   --> A              
     e( 81 - 81) =     -3.39491  eV     1   --> A              
     e( 82 - 82) =     -3.28419  eV     1   --> A              
     e( 83 - 83) =     -3.22277  eV     1   --> A              
     e( 84 - 84) =     -3.04262  eV     1   --> A              
     e( 85 - 85) =     -2.83919  eV     1   --> A              
     e( 86 - 86) =     -2.67509  eV     1   --> A              
     e( 87 - 87) =     -2.66392  eV     1   --> A              
     e( 88 - 88) =     -2.61475  eV     1   --> A              
     e( 89 - 89) =     -2.61414  eV     1   --> A              
     e( 90 - 90) =     -2.44655  eV     1   --> A              
     e( 91 - 91) =     -2.33768  eV     1   --> A              
     e( 92 - 92) =     -2.11399  eV     1   --> A              
     e( 93 - 93) =     -2.09947  eV     1   --> A              
     e( 94 - 94) =     -2.00754  eV     1   --> A              
     e( 95 - 95) =     -1.99893  eV     1   --> A              
     e( 96 - 96) =     -1.58527  eV     1   --> A              
     e( 97 - 97) =     -1.54199  eV     1   --> A              
     e( 98 - 98) =     -1.51093  eV     1   --> A              
     e( 99 - 99) =     -1.35365  eV     1   --> A              
     e(100 -100) =     -1.33041  eV     1   --> A              
     e(101 -101) =     -0.47342  eV     1   --> A              
     e(102 -102) =     -0.33180  eV     1   --> A              
     e(103 -103) =     -0.12903  eV     1   --> A              
     e(104 -104) =     -0.03002  eV     1   --> A              
     e(105 -105) =      0.05941  eV     1   --> A              
     e(106 -106) =      0.34298  eV     1   --> A              
     e(107 -107) =      0.55131  eV     1   --> A              
     e(108 -108) =      0.76569  eV     1   --> A              
     e(109 -109) =      0.90088  eV     1   --> A              
     e(110 -110) =      0.92582  eV     1   --> A              
     e(111 -111) =      1.01942  eV     1   --> A              
     e(112 -112) =      1.03479  eV     1   --> A              
     e(113 -113) =      1.22493  eV     1   --> A              
     e(114 -114) =      1.24880  eV     1   --> A              
     e(115 -115) =      1.26923  eV     1   --> A              
     e(116 -116) =      1.35357  eV     1   --> A              
     e(117 -117) =      1.75460  eV     1   --> A              
     e(118 -118) =      1.81917  eV     1   --> A              
     e(119 -119) =      1.84082  eV     1   --> A              
     e(120 -120) =      1.90300  eV     1   --> A              

 **************************************************************************

 **************************************************************************

                    xk=(   0.15000,   0.57735,   0.00000  )

     Band symmetry, C_1 (1)     point group:

     e(  1 -  1) =    -15.79450  eV     1   --> A              
     e(  2 -  2) =    -15.68978  eV     1   --> A              
     e(  3 -  3) =    -15.43357  eV     1   --> A              
     e(  4 -  4) =    -14.98613  eV     1   --> A              
     e(  5 -  5) =    -14.45642  eV     1   --> A              
     e(  6 -  6) =    -14.45089  eV     1   --> A              
     e(  7 -  7) =    -14.05389  eV     1   --> A              
     e(  8 -  8) =    -14.04854  eV     1   --> A              
     e(  9 -  9) =    -13.84319  eV     1   --> A              
     e( 10 - 10) =    -13.74610  eV     1   --> A              
     e( 11 - 11) =    -13.42670  eV     1   --> A              
     e( 12 - 12) =    -13.32460  eV     1   --> A              
     e( 13 - 13) =    -12.93493  eV     1   --> A              
     e( 14 - 14) =    -12.82634  eV     1   --> A              
     e( 15 - 15) =    -12.58836  eV     1   --> A              
     e( 16 - 16) =    -12.41042  eV     1   --> A              
     e( 17 - 17) =    -11.74942  eV     1   --> A              
     e( 18 - 18) =    -11.73060  eV     1   --> A              
     e( 19 - 19) =    -11.42306  eV     1   --> A              
     e( 20 - 20) =    -10.92398  eV     1   --> A              
     e( 21 - 21) =    -10.36609  eV     1   --> A              
     e( 22 - 22) =    -10.34811  eV     1   --> A              
     e( 23 - 23) =    -10.07818  eV     1   --> A              
     e( 24 - 24) =    -10.03107  eV     1   --> A              
     e( 25 - 25) =    -10.02402  eV     1   --> A              
     e( 26 - 26) =     -9.75555  eV     1   --> A              
     e( 27 - 27) =     -9.69602  eV     1   --> A              
     e( 28 - 28) =     -9.59516  eV     1   --> A              
     e( 29 - 29) =     -9.40052  eV     1   --> A              
     e( 30 - 30) =     -9.26032  eV     1   --> A              
     e( 31 - 31) =     -9.19723  eV     1   --> A              
     e( 32 - 32) =     -8.82952  eV     1   --> A              
     e( 33 - 33) =     -8.77770  eV     1   --> A              
     e( 34 - 34) =     -8.28674  eV     1   --> A              
     e( 35 - 35) =     -8.27064  eV     1   --> A              
     e( 36 - 36) =     -8.25621  eV     1   --> A              
     e( 37 - 37) =     -8.15342  eV     1   --> A              
     e( 38 - 38) =     -8.14260  eV     1   --> A              
     e( 39 - 39) =     -7.72957  eV     1   --> A              
     e( 40 - 40) =     -7.71592  eV     1   --> A              
     e( 41 - 41) =     -7.66999  eV     1   --> A              
     e( 42 - 42) =     -7.31807  eV     1   --> A              
     e( 43 - 43) =     -7.31231  eV     1   --> A              
     e( 44 - 44) =     -6.94704  eV     1   --> A              
     e( 45 - 45) =     -6.84322  eV     1   --> A              
     e( 46 - 46) =     -6.31615  eV     1   --> A              
     e( 47 - 47) =     -6.16159  eV     1   --> A              
     e( 48 - 48) =     -6.09320  eV     1   --> A              
     e( 49 - 49) =     -6.08248  eV     1   --> A              
     e( 50 - 50) =     -6.06977  eV     1   --> A              
     e( 51 - 51) =     -6.01604  eV     1   --> A              
     e( 52 - 52) =     -5.50847  eV     1   --> A              
     e( 53 - 53) =     -5.46436  eV     1   --> A              
     e( 54 - 54) =     -5.28781  eV     1   --> A              
     e( 55 - 55) =     -5.26776  eV     1   --> A              
     e( 56 - 56) =     -5.24290  eV     1   --> A              
     e( 57 - 57) =     -5.22483  eV     1   --> A              
     e( 58 - 58) =     -5.21121  eV     1   --> A              
     e( 59 - 59) =     -5.19212  eV     1   --> A              
     e( 60 - 60) =     -5.09709  eV     1   --> A              
     e( 61 - 61) =     -4.84540  eV     1   --> A              
     e( 62 - 62) =     -4.74829  eV     1   --> A              
     e( 63 - 63) =     -4.69413  eV     1   --> A              
     e( 64 - 64) =     -4.64855  eV     1   --> A              
     e( 65 - 65) =     -4.62412  eV     1   --> A              
     e( 66 - 66) =     -4.58344  eV     1   --> A              
     e( 67 - 67) =     -4.57474  eV     1   --> A              
     e( 68 - 68) =     -4.44548  eV     1   --> A              
     e( 69 - 69) =     -4.38488  eV     1   --> A              
     e( 70 - 70) =     -4.20046  eV     1   --> A              
     e( 71 - 71) =     -4.17912  eV     1   --> A              
     e( 72 - 72) =     -4.04157  eV     1   --> A              
     e( 73 - 73) =     -4.02672  eV     1   --> A              
     e( 74 - 74) =     -3.92545  eV     1   --> A              
     e( 75 - 75) =     -3.90332  eV     1   --> A              
     e( 76 - 76) =     -3.80786  eV     1   --> A              
     e( 77 - 77) =     -3.79933  eV     1   --> A              
     e( 78 - 78) =     -3.72232  eV     1   --> A              
     e( 79 - 79) =     -3.68530  eV     1   --> A              
     e( 80 - 80) =     -3.59238  eV     1   --> A              
     e( 81 - 81) =     -3.43021  eV     1   --> A              
     e( 82 - 82) =     -3.30909  eV     1   --> A              
     e( 83 - 83) =     -3.24651  eV     1   --> A              
     e( 84 - 84) =     -3.06968  eV     1   --> A              
     e( 85 - 85) =     -2.81977  eV     1   --> A              
     e( 86 - 86) =     -2.64865  eV     1   --> A              
     e( 87 - 87) =     -2.63608  eV     1   --> A              
     e( 88 - 88) =     -2.61320  eV     1   --> A              
     e( 89 - 89) =     -2.61276  eV     1   --> A              
     e( 90 - 90) =     -2.46226  eV     1   --> A              
     e( 91 - 91) =     -2.35100  eV     1   --> A              
[...]
     e( 63 - 63) =     -4.64234  eV     1   --> A''            
     e( 64 - 64) =     -4.58923  eV     1   --> A'             
     e( 65 - 65) =     -4.50976  eV     1   --> A'             
     e( 66 - 66) =     -4.48181  eV     1   --> A''            
     e( 67 - 67) =     -4.40842  eV     1   --> A'             
     e( 68 - 68) =     -4.33669  eV     1   --> A''            
     e( 69 - 69) =     -4.33458  eV     1   --> A'             
     e( 70 - 70) =     -4.32159  eV     1   --> A''            
     e( 71 - 71) =     -4.32066  eV     1   --> A'             
     e( 72 - 72) =     -4.15977  eV     1   --> A'             
     e( 73 - 73) =     -4.08696  eV     1   --> A'             
     e( 74 - 74) =     -3.98813  eV     1   --> A''            
     e( 75 - 75) =     -3.98345  eV     1   --> A'             
     e( 76 - 77) =     -3.76177  eV     2   --> A'             
     e( 76 - 77) =     -3.76177  eV     2   --> A''            
     e( 78 - 78) =     -3.67465  eV     1   --> A'             
     e( 79 - 79) =     -3.67369  eV     1   --> A''            
     e( 80 - 80) =     -3.52549  eV     1   --> A''            
     e( 81 - 81) =     -3.17154  eV     1   --> A''            
     e( 82 - 82) =     -3.14512  eV     1   --> A'             
     e( 83 - 83) =     -3.06348  eV     1   --> A'             
     e( 84 - 84) =     -3.01467  eV     1   --> A''            
     e( 85 - 85) =     -2.92155  eV     1   --> A''            
     e( 86 - 86) =     -2.82941  eV     1   --> A''            
     e( 87 - 87) =     -2.79776  eV     1   --> A'             
     e( 88 - 88) =     -2.62621  eV     1   --> A'             
     e( 89 - 89) =     -2.59192  eV     1   --> A'             
     e( 90 - 90) =     -2.29069  eV     1   --> A''            
     e( 91 - 91) =     -2.28852  eV     1   --> A'             
     e( 92 - 92) =     -2.24323  eV     1   --> A'             
     e( 93 - 93) =     -2.22568  eV     1   --> A''            
     e( 94 - 94) =     -2.01101  eV     1   --> A''            
     e( 95 - 95) =     -1.85834  eV     1   --> A''            
     e( 96 - 96) =     -1.60743  eV     1   --> A'             
     e( 97 - 97) =     -1.51742  eV     1   --> A''            
     e( 98 - 98) =     -1.51556  eV     1   --> A'             
     e( 99 - 99) =     -1.34527  eV     1   --> A'             
     e(100 -100) =     -1.33654  eV     1   --> A''            
     e(101 -101) =     -0.45711  eV     1   --> A'             
     e(102 -102) =     -0.31322  eV     1   --> A''            
     e(103 -103) =     -0.11392  eV     1   --> A'             
     e(104 -104) =     -0.02726  eV     1   --> A''            
     e(105 -105) =      0.09021  eV     1   --> A'             
     e(106 -106) =      0.37868  eV     1   --> A''            
     e(107 -107) =      0.41645  eV     1   --> A'             
     e(108 -108) =      0.66702  eV     1   --> A'             
     e(109 -109) =      0.76574  eV     1   --> A'             
     e(110 -110) =      0.78542  eV     1   --> A'             
     e(111 -111) =      1.00667  eV     1   --> A'             
     e(112 -112) =      1.06016  eV     1   --> A''            
     e(113 -113) =      1.18300  eV     1   --> A'             
     e(114 -114) =      1.23035  eV     1   --> A'             
     e(115 -115) =      1.25420  eV     1   --> A''            
     e(116 -116) =      1.28511  eV     1   --> A'             
     e(117 -117) =      1.82055  eV     1   --> A'             
     e(118 -118) =      1.83059  eV     1   --> A''            
     e(119 -119) =      1.89349  eV     1   --> A'             
     e(120 -120) =      1.92526  eV     1   --> A'             

 **************************************************************************

 **************************************************************************

                    xk=(   0.00000,   0.54848,   0.00000  )

     Band symmetry, C_s (m)     point group:

     e(  1 -  1) =    -15.81510  eV     1   --> A'             
     e(  2 -  2) =    -15.69922  eV     1   --> A'             
     e(  3 -  3) =    -15.23667  eV     1   --> A''            
     e(  4 -  4) =    -15.21600  eV     1   --> A'             
     e(  5 -  5) =    -14.31082  eV     1   --> A'             
     e(  6 -  6) =    -14.30521  eV     1   --> A''            
     e(  7 -  7) =    -14.21727  eV     1   --> A'             
     e(  8 -  8) =    -14.21247  eV     1   --> A''            
     e(  9 -  9) =    -13.89200  eV     1   --> A'             
     e( 10 - 10) =    -13.73430  eV     1   --> A'             
     e( 11 - 11) =    -13.18810  eV     1   --> A'             
     e( 12 - 12) =    -13.13911  eV     1   --> A''            
     e( 13 - 13) =    -13.05866  eV     1   --> A''            
     e( 14 - 14) =    -13.00754  eV     1   --> A'             
     e( 15 - 15) =    -12.50043  eV     1   --> A''            
     e( 16 - 16) =    -12.49336  eV     1   --> A'             
     e( 17 - 17) =    -11.78951  eV     1   --> A'             
     e( 18 - 18) =    -11.72834  eV     1   --> A'             
     e( 19 - 19) =    -11.19224  eV     1   --> A''            
     e( 20 - 20) =    -11.18514  eV     1   --> A'             
     e( 21 - 21) =    -10.23175  eV     1   --> A''            
     e( 22 - 22) =    -10.22732  eV     1   --> A'             
     e( 23 - 23) =    -10.13533  eV     1   --> A'             
     e( 24 - 24) =    -10.13217  eV     1   --> A''            
     e( 25 - 25) =    -10.08621  eV     1   --> A'             
     e( 26 - 26) =     -9.61148  eV     1   --> A''            
     e( 27 - 27) =     -9.59273  eV     1   --> A'             
     e( 28 - 28) =     -9.49165  eV     1   --> A''            
     e( 29 - 29) =     -9.49055  eV     1   --> A'             
     e( 30 - 30) =     -9.46141  eV     1   --> A'             
     e( 31 - 31) =     -9.43520  eV     1   --> A''            
     e( 32 - 32) =     -8.91246  eV     1   --> A'             
     e( 33 - 33) =     -8.70999  eV     1   --> A'             
     e( 34 - 34) =     -8.26257  eV     1   --> A'             
     e( 35 - 35) =     -8.05665  eV     1   --> A''            
     e( 36 - 36) =     -8.05290  eV     1   --> A'             
     e( 37 - 37) =     -7.94989  eV     1   --> A''            
     e( 38 - 38) =     -7.94719  eV     1   --> A'             
     e( 39 - 39) =     -7.78303  eV     1   --> A'             
     e( 40 - 40) =     -7.77835  eV     1   --> A''            
     e( 41 - 41) =     -7.67462  eV     1   --> A'             
     e( 42 - 42) =     -7.67027  eV     1   --> A''            
     e( 43 - 43) =     -7.36840  eV     1   --> A''            
     e( 44 - 44) =     -7.35831  eV     1   --> A'             
     e( 45 - 45) =     -6.39855  eV     1   --> A''            
     e( 46 - 46) =     -6.39629  eV     1   --> A'             
     e( 47 - 47) =     -6.18572  eV     1   --> A'             
     e( 48 - 48) =     -6.10175  eV     1   --> A'             
     e( 49 - 49) =     -5.86329  eV     1   --> A'             
     e( 50 - 50) =     -5.84530  eV     1   --> A''            
     e( 51 - 51) =     -5.77714  eV     1   --> A'             
     e( 52 - 52) =     -5.77390  eV     1   --> A''            
     e( 53 - 53) =     -5.69040  eV     1   --> A''            
     e( 54 - 54) =     -5.66504  eV     1   --> A'             
     e( 55 - 55) =     -5.33877  eV     1   --> A'             
     e( 56 - 56) =     -5.33673  eV     1   --> A''            
     e( 57 - 57) =     -5.28783  eV     1   --> A''            
     e( 58 - 58) =     -5.27847  eV     1   --> A'             
     e( 59 - 59) =     -5.17665  eV     1   --> A'             
     e( 60 - 60) =     -5.17605  eV     1   --> A''            
     e( 61 - 61) =     -4.75829  eV     1   --> A''            
     e( 62 - 62) =     -4.68240  eV     1   --> A'             
     e( 63 - 63) =     -4.65157  eV     1   --> A''            
     e( 64 - 64) =     -4.54016  eV     1   --> A'             
     e( 65 - 65) =     -4.48952  eV     1   --> A'             
     e( 66 - 66) =     -4.44156  eV     1   --> A''            
     e( 67 - 67) =     -4.42516  eV     1   --> A'             
     e( 68 - 68) =     -4.36397  eV     1   --> A''            
     e( 69 - 69) =     -4.36163  eV     1   --> A'             
     e( 70 - 70) =     -4.33936  eV     1   --> A'             
     e( 71 - 71) =     -4.32952  eV     1   --> A''            
     e( 72 - 72) =     -4.22704  eV     1   --> A'             
     e( 73 - 73) =     -4.05709  eV     1   --> A'             
     e( 74 - 74) =     -3.94420  eV     1   --> A''            
     e( 75 - 75) =     -3.93919  eV     1   --> A'             
     e( 76 - 76) =     -3.82309  eV     1   --> A''            
     e( 77 - 77) =     -3.82200  eV     1   --> A'             
     e( 78 - 78) =     -3.71083  eV     1   --> A'             
     e( 79 - 79) =     -3.65734  eV     1   --> A''            
     e( 80 - 80) =     -3.54328  eV     1   --> A''            
     e( 81 - 81) =     -3.17465  eV     1   --> A''            
     e( 82 - 82) =     -3.14742  eV     1   --> A'             
     e( 83 - 83) =     -3.06560  eV     1   --> A'             
     e( 84 - 84) =     -3.01524  eV     1   --> A''            
     e( 85 - 85) =     -2.92343  eV     1   --> A''            
     e( 86 - 86) =     -2.83227  eV     1   --> A''            
     e( 87 - 87) =     -2.79991  eV     1   --> A'             
     e( 88 - 88) =     -2.62570  eV     1   --> A'             
     e( 89 - 89) =     -2.60909  eV     1   --> A'             
     e( 90 - 90) =     -2.29183  eV     1   --> A''            
     e( 91 - 91) =     -2.28958  eV     1   --> A'             
     e( 92 - 92) =     -2.23553  eV     1   --> A'             
     e( 93 - 93) =     -2.21799  eV     1   --> A''            
     e( 94 - 94) =     -1.97258  eV     1   --> A''            
     e( 95 - 95) =     -1.89558  eV     1   --> A''            
     e( 96 - 96) =     -1.60105  eV     1   --> A'             
     e( 97 - 97) =     -1.48007  eV     1   --> A''            
     e( 98 - 98) =     -1.47524  eV     1   --> A'             
     e( 99 - 99) =     -1.38699  eV     1   --> A'             
     e(100 -100) =     -1.37524  eV     1   --> A''            
     e(101 -101) =     -0.45819  eV     1   --> A'             
     e(102 -102) =     -0.31386  eV     1   --> A''            
     e(103 -103) =     -0.11442  eV     1   --> A'             
     e(104 -104) =     -0.02213  eV     1   --> A''            
     e(105 -105) =      0.09679  eV     1   --> A'             
     e(106 -106) =      0.37646  eV     1   --> A''            
     e(107 -107) =      0.41746  eV     1   --> A'             
     e(108 -108) =      0.66705  eV     1   --> A'             
     e(109 -109) =      0.77990  eV     1   --> A'             
     e(110 -110) =      0.79789  eV     1   --> A'             
     e(111 -111) =      1.00782  eV     1   --> A'             
     e(112 -112) =      1.05884  eV     1   --> A''            
     e(113 -113) =      1.19049  eV     1   --> A'             
     e(114 -114) =      1.23385  eV     1   --> A'             
     e(115 -115) =      1.25489  eV     1   --> A''            
     e(116 -116) =      1.27656  eV     1   --> A'             
     e(117 -117) =      1.83604  eV     1   --> A'             
     e(118 -118) =      1.85382  eV     1   --> A''            
     e(119 -119) =      1.90326  eV     1   --> A'             
     e(120 -120) =      1.92128  eV     1   --> A'             

 **************************************************************************

 **************************************************************************

                    xk=(   0.00000,   0.57735,   0.00000  )

     Band symmetry, C_s (m)     point group:

     e(  1 -  1) =    -15.80966  eV     1   --> A'             
     e(  2 -  2) =    -15.70594  eV     1   --> A'             
     e(  3 -  3) =    -15.23746  eV     1   --> A''            
     e(  4 -  4) =    -15.21683  eV     1   --> A'             
     e(  5 -  5) =    -14.27023  eV     1   --> A'             
     e(  6 -  6) =    -14.26362  eV     1   --> A''            
     e(  7 -  7) =    -14.25875  eV     1   --> A'             
     e(  8 -  8) =    -14.25503  eV     1   --> A''            
     e(  9 -  9) =    -13.86291  eV     1   --> A'             
     e( 10 - 10) =    -13.76346  eV     1   --> A'             
     e( 11 - 11) =    -13.18781  eV     1   --> A'             
     e( 12 - 12) =    -13.13827  eV     1   --> A''            
     e( 13 - 13) =    -13.05980  eV     1   --> A''            
     e( 14 - 14) =    -13.00814  eV     1   --> A'             
     e( 15 - 15) =    -12.49827  eV     1   --> A''            
     e( 16 - 16) =    -12.49120  eV     1   --> A'             
     e( 17 - 17) =    -11.76912  eV     1   --> A'             
     e( 18 - 18) =    -11.75027  eV     1   --> A'             
     e( 19 - 19) =    -11.19309  eV     1   --> A''            
     e( 20 - 20) =    -11.18600  eV     1   --> A'             
     e( 21 - 21) =    -10.19912  eV     1   --> A''            
     e( 22 - 22) =    -10.19243  eV     1   --> A'             
     e( 23 - 23) =    -10.16833  eV     1   --> A'             
     e( 24 - 24) =    -10.16573  eV     1   --> A''            
     e( 25 - 25) =    -10.08529  eV     1   --> A'             
     e( 26 - 26) =     -9.59836  eV     1   --> A''            
     e( 27 - 27) =     -9.57475  eV     1   --> A'             
     e( 28 - 28) =     -9.49986  eV     1   --> A''            
     e( 29 - 29) =     -9.49947  eV     1   --> A'             
     e( 30 - 30) =     -9.47585  eV     1   --> A'             
     e( 31 - 31) =     -9.44565  eV     1   --> A''            
     e( 32 - 32) =     -8.83786  eV     1   --> A'             
     e( 33 - 33) =     -8.78668  eV     1   --> A'             
     e( 34 - 34) =     -8.26789  eV     1   --> A'             
     e( 35 - 35) =     -8.01547  eV     1   --> A''            
     e( 36 - 36) =     -8.01014  eV     1   --> A'             
     e( 37 - 37) =     -7.99108  eV     1   --> A''            
     e( 38 - 38) =     -7.98997  eV     1   --> A'             
     e( 39 - 39) =     -7.73501  eV     1   --> A'             
     e( 40 - 40) =     -7.72477  eV     1   --> A''            
     e( 41 - 41) =     -7.72448  eV     1   --> A''            
     e( 42 - 42) =     -7.72332  eV     1   --> A'             
     e( 43 - 43) =     -7.37097  eV     1   --> A''            
     e( 44 - 44) =     -7.36092  eV     1   --> A'             
     e( 45 - 45) =     -6.39685  eV     1   --> A''            
     e( 46 - 46) =     -6.39463  eV     1   --> A'             
     e( 47 - 47) =     -6.18136  eV     1   --> A'             
     e( 48 - 48) =     -6.10591  eV     1   --> A'             
     e( 49 - 49) =     -5.83389  eV     1   --> A'             
     e( 50 - 50) =     -5.81058  eV     1   --> A''            
     e( 51 - 51) =     -5.77809  eV     1   --> A'             
     e( 52 - 52) =     -5.75129  eV     1   --> A''            
     e( 53 - 53) =     -5.74596  eV     1   --> A''            
     e( 54 - 54) =     -5.69174  eV     1   --> A'             
     e( 55 - 55) =     -5.29713  eV     1   --> A'             
     e( 56 - 56) =     -5.29671  eV     1   --> A''            
     e( 57 - 57) =     -5.26736  eV     1   --> A''            
     e( 58 - 58) =     -5.25302  eV     1   --> A'             
     e( 59 - 59) =     -5.24457  eV     1   --> A'             
     e( 60 - 60) =     -5.23736  eV     1   --> A''            
     e( 61 - 61) =     -4.75590  eV     1   --> A''            
     e( 62 - 62) =     -4.65526  eV     1   --> A''            
     e( 63 - 63) =     -4.60758  eV     1   --> A'             
     e( 64 - 64) =     -4.59624  eV     1   --> A'             
     e( 65 - 65) =     -4.45150  eV     1   --> A'             
     e( 66 - 66) =     -4.40919  eV     1   --> A''            
     e( 67 - 67) =     -4.40644  eV     1   --> A'             
     e( 68 - 68) =     -4.39376  eV     1   --> A''            
     e( 69 - 69) =     -4.38635  eV     1   --> A'             
     e( 70 - 70) =     -4.35626  eV     1   --> A'             
     e( 71 - 71) =     -4.33410  eV     1   --> A''            
     e( 72 - 72) =     -4.25851  eV     1   --> A'             
     e( 73 - 73) =     -4.04481  eV     1   --> A'             
     e( 74 - 74) =     -3.90745  eV     1   --> A''            
     e( 75 - 75) =     -3.90179  eV     1   --> A'             
     e( 76 - 76) =     -3.86535  eV     1   --> A''            
     e( 77 - 77) =     -3.86444  eV     1   --> A'             
     e( 78 - 78) =     -3.72439  eV     1   --> A'             
     e( 79 - 79) =     -3.65174  eV     1   --> A''            
     e( 80 - 80) =     -3.54984  eV     1   --> A''            
     e( 81 - 81) =     -3.17599  eV     1   --> A''            
     e( 82 - 82) =     -3.14846  eV     1   --> A'             
     e( 83 - 83) =     -3.06669  eV     1   --> A'             
     e( 84 - 84) =     -3.01578  eV     1   --> A''            
     e( 85 - 85) =     -2.92408  eV     1   --> A''            
     e( 86 - 86) =     -2.83348  eV     1   --> A''            
     e( 87 - 87) =     -2.80091  eV     1   --> A'             
     e( 88 - 88) =     -2.62089  eV     1   --> A'             
     e( 89 - 89) =     -2.61948  eV     1   --> A'             
     e( 90 - 90) =     -2.29238  eV     1   --> A''            
     e( 91 - 91) =     -2.29011  eV     1   --> A'             
     e( 92 - 92) =     -2.23324  eV     1   --> A'             
     e( 93 - 93) =     -2.21571  eV     1   --> A''            
     e( 94 - 94) =     -1.93867  eV     1   --> A''            
     e( 95 - 95) =     -1.92913  eV     1   --> A''            
     e( 96 - 96) =     -1.59885  eV     1   --> A'             
     e( 97 - 97) =     -1.45845  eV     1   --> A''            
     e( 98 - 98) =     -1.44446  eV     1   --> A'             
     e( 99 - 99) =     -1.41842  eV     1   --> A'             
     e(100 -100) =     -1.39754  eV     1   --> A''            
     e(101 -101) =     -0.45868  eV     1   --> A'             
     e(102 -102) =     -0.31424  eV     1   --> A''            
     e(103 -103) =     -0.11462  eV     1   --> A'             
     e(104 -104) =     -0.02053  eV     1   --> A''            
     e(105 -105) =      0.09891  eV     1   --> A'             
     e(106 -106) =      0.37558  eV     1   --> A''            
     e(107 -107) =      0.41770  eV     1   --> A'             
     e(108 -108) =      0.66684  eV     1   --> A'             
     e(109 -109) =      0.78449  eV     1   --> A'             
     e(110 -110) =      0.80243  eV     1   --> A'             
     e(111 -111) =      1.00811  eV     1   --> A'             
     e(112 -112) =      1.05833  eV     1   --> A''            
     e(113 -113) =      1.19257  eV     1   --> A'             
     e(114 -114) =      1.23662  eV     1   --> A'             
     e(115 -115) =      1.25490  eV     1   --> A''            
     e(116 -116) =      1.27238  eV     1   --> A'             
     e(117 -117) =      1.84213  eV     1   --> A'             
     e(118 -118) =      1.86096  eV     1   --> A''            
     e(119 -119) =      1.89823  eV     1   --> A'             
     e(120 -120) =      1.92559  eV     1   --> A'             

 **************************************************************************

     BANDS        : 12m34.47s CPU    16m43.94s WALL


   This run was terminated on:  13:43: 7  18Apr2020            

=------------------------------------------------------------------------------=
   JOB DONE.
=------------------------------------------------------------------------------=
