
     Program BANDS v.6.3 starts on 20Apr2020 at  1:17: 3 

     This program is part of the open-source Quantum ESPRESSO suite
     for quantum simulation of materials; please cite
         "P. Giannozzi et al., J. Phys.:Condens. Matter 21 395502 (2009);
         "P. Giannozzi et al., J. Phys.:Condens. Matter 29 465901 (2017);
          URL http://www.quantum-espresso.org", 
     in publications or presentations arising from this work. More details at
     http://www.quantum-espresso.org/quote

     Parallel version (MPI), running on     1 processors

     MPI processes distributed on     1 nodes

     Reading data from directory:
     /home/nano3/Desktop/RAYID/Ge+SiC/Ge+SiC_I/work/Ge+SiC_I__4.5.save/

     IMPORTANT: XC functional enforced from input :
     Exchange-correlation      = PBE ( 1  4  3  4 0 0)
     Any further DFT definition will be discarded
     Please, verify this is what you really want

               file Ge.pbe-mt_fhi.UPF: wavefunction(s)  4d 4f renormalized
               file C.pbe-mt_fhi.UPF: wavefunction(s)  4f renormalized
               file Si.pbe-mt_fhi.UPF: wavefunction(s)  4f renormalized

     G-vector sticks info
     --------------------
     sticks:   dense  smooth     PW     G-vecs:    dense   smooth      PW
     Sum        4429    4429   1177               388955   388955   53541

     high-symmetry point:  0.0000 0.5774 0.0000   x coordinate   0.0000
     high-symmetry point:  0.3333 0.5774 0.0000   x coordinate   0.3333
     high-symmetry point:  0.0000 0.0000 0.0000   x coordinate   1.0000
     high-symmetry point:  0.0000 0.5774 0.0000   x coordinate   1.5774

     Plottable bands (eV) written to file /home/nano3/Desktop/RAYID/Ge+SiC/Ge+SiC_I/OUT/Ge+SiC_I__4.5.band.gnu
     Bands written to file /home/nano3/Desktop/RAYID/Ge+SiC/Ge+SiC_I/OUT/Ge+SiC_I__4.5.band

 **************************************************************************

                    xk=(   0.00000,   0.57735,   0.00000  )

     point group C_s (m)    
     there are  2 classes
     the character table:

       E     s    
A'     1.00  1.00
A''    1.00 -1.00

     the symmetry operations in each class and the name of the first element:

     E        1
                                                                 
     s        2
                                                                 

     Band symmetry, C_s (m)     point group:

     e(  1 -  1) =    -15.31484  eV     1   --> A'             
     e(  2 -  2) =    -15.30437  eV     1   --> A'             
     e(  3 -  4) =    -14.79543  eV     2   --> A'             
     e(  3 -  4) =    -14.79543  eV     2   --> A''            
     e(  5 -  5) =    -13.82550  eV     1   --> A'             
     e(  6 -  6) =    -13.82516  eV     1   --> A''            
     e(  7 -  7) =    -13.82379  eV     1   --> A'             
     e(  8 -  8) =    -13.82359  eV     1   --> A''            
     e(  9 -  9) =    -13.39812  eV     1   --> A'             
     e( 10 - 10) =    -13.39119  eV     1   --> A'             
     e( 11 - 11) =    -12.68672  eV     1   --> A'             
     e( 12 - 12) =    -12.67619  eV     1   --> A''            
     e( 13 - 13) =    -12.67480  eV     1   --> A''            
     e( 14 - 14) =    -12.66781  eV     1   --> A'             
     e( 15 - 16) =    -12.09133  eV     2   --> A'             
     e( 15 - 16) =    -12.09133  eV     2   --> A''            
     e( 17 - 17) =    -11.86266  eV     1   --> A'             
     e( 18 - 18) =    -11.85988  eV     1   --> A'             
     e( 19 - 19) =    -11.28967  eV     1   --> A''            
     e( 20 - 20) =    -11.28878  eV     1   --> A'             
     e( 21 - 21) =    -10.27476  eV     1   --> A''            
     e( 22 - 22) =    -10.27390  eV     1   --> A'             
     e( 23 - 23) =    -10.27158  eV     1   --> A''            
     e( 24 - 24) =    -10.27085  eV     1   --> A'             
     e( 25 - 25) =    -10.18953  eV     1   --> A'             
     e( 26 - 26) =     -9.10673  eV     1   --> A''            
     e( 27 - 27) =     -9.10261  eV     1   --> A'             
     e( 28 - 28) =     -9.09638  eV     1   --> A'             
     e( 29 - 29) =     -9.09369  eV     1   --> A''            
     e( 30 - 30) =     -9.04615  eV     1   --> A'             
     e( 31 - 31) =     -9.04585  eV     1   --> A''            
     e( 32 - 32) =     -8.38693  eV     1   --> A'             
     e( 33 - 33) =     -8.38108  eV     1   --> A'             
     e( 34 - 34) =     -8.36495  eV     1   --> A'             
     e( 35 - 35) =     -8.09847  eV     1   --> A''            
     e( 36 - 36) =     -8.09755  eV     1   --> A'             
     e( 37 - 38) =     -8.09607  eV     2   --> A'             
     e( 37 - 38) =     -8.09607  eV     2   --> A''            
     e( 39 - 40) =     -7.31643  eV     2   --> A'             
     e( 39 - 40) =     -7.31643  eV     2   --> A''            
     e( 41 - 42) =     -7.31565  eV     2   --> A'             
     e( 41 - 42) =     -7.31565  eV     2   --> A''            
     e( 43 - 44) =     -6.96143  eV     2   --> A'             
     e( 43 - 44) =     -6.96143  eV     2   --> A''            
     e( 45 - 45) =     -6.39558  eV     1   --> A''            
     e( 46 - 46) =     -6.39542  eV     1   --> A'             
     e( 47 - 47) =     -5.36728  eV     1   --> A''            
     e( 48 - 48) =     -5.36702  eV     1   --> A'             
     e( 49 - 49) =     -5.35373  eV     1   --> A'             
     e( 50 - 50) =     -5.34807  eV     1   --> A''            
     e( 51 - 51) =     -5.34468  eV     1   --> A''            
     e( 52 - 52) =     -5.34072  eV     1   --> A'             
     e( 53 - 53) =     -5.29842  eV     1   --> A'             
     e( 54 - 54) =     -5.29018  eV     1   --> A'             
     e( 55 - 55) =     -4.98954  eV     1   --> A'             
     e( 56 - 56) =     -4.98789  eV     1   --> A'             
     e( 57 - 58) =     -4.85002  eV     2   --> A'             
     e( 57 - 58) =     -4.85002  eV     2   --> A''            
     e( 59 - 60) =     -4.84955  eV     2   --> A'             
     e( 59 - 60) =     -4.84955  eV     2   --> A''            
     e( 61 - 62) =     -4.70384  eV     2   --> A'             
     e( 61 - 62) =     -4.70384  eV     2   --> A''            
     e( 63 - 63) =     -4.30240  eV     1   --> A''            
     e( 64 - 64) =     -4.29187  eV     1   --> A''            
     e( 65 - 65) =     -3.98355  eV     1   --> A'             
     e( 66 - 66) =     -3.97399  eV     1   --> A'             
     e( 67 - 67) =     -3.94400  eV     1   --> A'             
     e( 68 - 68) =     -3.94378  eV     1   --> A''            
     e( 69 - 69) =     -3.94167  eV     1   --> A''            
     e( 70 - 70) =     -3.94114  eV     1   --> A'             
     e( 71 - 71) =     -3.93295  eV     1   --> A''            
     e( 72 - 72) =     -3.93134  eV     1   --> A'             
     e( 73 - 73) =     -3.67560  eV     1   --> A'             
     e( 74 - 74) =     -3.67523  eV     1   --> A''            
     e( 75 - 76) =     -3.67411  eV     2   --> A'             
     e( 75 - 76) =     -3.67411  eV     2   --> A''            
     e( 77 - 77) =     -3.23961  eV     1   --> A'             
     e( 78 - 78) =     -3.21665  eV     1   --> A'             
     e( 79 - 79) =     -3.20727  eV     1   --> A''            
     e( 80 - 80) =     -3.19747  eV     1   --> A''            
     e( 81 - 81) =     -3.10282  eV     1   --> A''            
     e( 82 - 82) =     -3.10238  eV     1   --> A'             
     e( 83 - 83) =     -3.04082  eV     1   --> A'             
     e( 84 - 84) =     -3.04026  eV     1   --> A'             
     e( 85 - 85) =     -3.00257  eV     1   --> A''            
     e( 86 - 86) =     -2.84701  eV     1   --> A''            
     e( 87 - 87) =     -2.84648  eV     1   --> A'             
     e( 88 - 88) =     -2.46795  eV     1   --> A'             
     e( 89 - 89) =     -2.45782  eV     1   --> A''            
     e( 90 - 90) =     -2.45602  eV     1   --> A''            
     e( 91 - 91) =     -2.44867  eV     1   --> A'             
     e( 92 - 92) =     -2.12708  eV     1   --> A'             
     e( 93 - 93) =     -2.03453  eV     1   --> A''            
     e( 94 - 94) =     -2.03316  eV     1   --> A''            
     e( 95 - 96) =     -1.98005  eV     2   --> A'             
     e( 95 - 96) =     -1.98005  eV     2   --> A''            
     e( 97 - 97) =     -1.97859  eV     1   --> A''            
     e( 98 - 98) =     -1.97744  eV     1   --> A'             
     e( 99 - 99) =     -1.78052  eV     1   --> A'             
     e(100 -100) =     -1.78041  eV     1   --> A''            
     e(101 -101) =     -0.31439  eV     1   --> A'             
     e(102 -102) =     -0.09999  eV     1   --> A'             
     e(103 -103) =     -0.09914  eV     1   --> A''            
     e(104 -104) =     -0.08954  eV     1   --> A''            
     e(105 -105) =     -0.08789  eV     1   --> A'             
     e(106 -106) =      0.52140  eV     1   --> A'             
     e(107 -107) =      0.78395  eV     1   --> A'             
     e(108 -108) =      0.78433  eV     1   --> A'             
     e(109 -109) =      0.98605  eV     1   --> A''            
     e(110 -110) =      0.98734  eV     1   --> A'             
     e(111 -111) =      1.07783  eV     1   --> A''            
     e(112 -112) =      1.07993  eV     1   --> A'             
     e(113 -113) =      1.26035  eV     1   --> A'             
     e(114 -114) =      1.26397  eV     1   --> A'             
     e(115 -115) =      1.38550  eV     1   --> A'             
     e(116 -116) =      1.39422  eV     1   --> A''            
     e(117 -117) =      1.42967  eV     1   --> A''            
     e(118 -118) =      1.43780  eV     1   --> A'             
     e(119 -119) =      2.10774  eV     1   --> A''            
     e(120 -120) =      2.10833  eV     1   --> A'             

 **************************************************************************

 **************************************************************************

                    xk=(   0.01667,   0.57735,   0.00000  )

     point group C_1 (1)    
     there are  1 classes
     the character table:

       E    
A      1.00

     the symmetry operations in each class and the name of the first element:

     E        1
                                                                 

     Band symmetry, C_1 (1)     point group:

     e(  1 -  1) =    -15.31456  eV     1   --> A              
     e(  2 -  2) =    -15.30409  eV     1   --> A              
     e(  3 -  3) =    -14.82031  eV     1   --> A              
     e(  4 -  4) =    -14.76984  eV     1   --> A              
     e(  5 -  5) =    -13.84806  eV     1   --> A              
     e(  6 -  6) =    -13.84642  eV     1   --> A              
     e(  7 -  7) =    -13.80227  eV     1   --> A              
     e(  8 -  8) =    -13.80063  eV     1   --> A              
     e(  9 -  9) =    -13.39778  eV     1   --> A              
     e( 10 - 10) =    -13.39084  eV     1   --> A              
     e( 11 - 11) =    -12.71020  eV     1   --> A              
     e( 12 - 12) =    -12.69977  eV     1   --> A              
     e( 13 - 13) =    -12.65327  eV     1   --> A              
     e( 14 - 14) =    -12.64343  eV     1   --> A              
     e( 15 - 15) =    -12.10217  eV     1   --> A              
     e( 16 - 16) =    -12.08040  eV     1   --> A              
     e( 17 - 17) =    -11.86235  eV     1   --> A              
     e( 18 - 18) =    -11.85957  eV     1   --> A              
     e( 19 - 19) =    -11.31683  eV     1   --> A              
     e( 20 - 20) =    -11.26094  eV     1   --> A              
     e( 21 - 21) =    -10.29249  eV     1   --> A              
     e( 22 - 22) =    -10.29127  eV     1   --> A              
     e( 23 - 23) =    -10.25457  eV     1   --> A              
     e( 24 - 24) =    -10.25324  eV     1   --> A              
     e( 25 - 25) =    -10.18915  eV     1   --> A              
     e( 26 - 26) =     -9.12953  eV     1   --> A              
     e( 27 - 27) =     -9.12356  eV     1   --> A              
     e( 28 - 28) =     -9.07373  eV     1   --> A              
     e( 29 - 29) =     -9.06781  eV     1   --> A              
     e( 30 - 30) =     -9.05888  eV     1   --> A              
     e( 31 - 31) =     -9.03284  eV     1   --> A              
     e( 32 - 32) =     -8.38673  eV     1   --> A              
     e( 33 - 33) =     -8.38086  eV     1   --> A              
     e( 34 - 34) =     -8.36500  eV     1   --> A              
     e( 35 - 35) =     -8.12648  eV     1   --> A              
     e( 36 - 36) =     -8.12605  eV     1   --> A              
     e( 37 - 37) =     -8.06740  eV     1   --> A              
     e( 38 - 38) =     -8.06693  eV     1   --> A              
     e( 39 - 39) =     -7.36540  eV     1   --> A              
     e( 40 - 40) =     -7.36459  eV     1   --> A              
     e( 41 - 41) =     -7.26761  eV     1   --> A              
     e( 42 - 42) =     -7.26684  eV     1   --> A              
     e( 43 - 43) =     -7.00206  eV     1   --> A              
     e( 44 - 44) =     -6.91736  eV     1   --> A              
     e( 45 - 45) =     -6.45291  eV     1   --> A              
     e( 46 - 46) =     -6.33766  eV     1   --> A              
     e( 47 - 47) =     -5.42391  eV     1   --> A              
     e( 48 - 48) =     -5.38124  eV     1   --> A              
     e( 49 - 49) =     -5.37597  eV     1   --> A              
     e( 50 - 50) =     -5.31757  eV     1   --> A              
     e( 51 - 51) =     -5.31442  eV     1   --> A              
     e( 52 - 52) =     -5.30505  eV     1   --> A              
     e( 53 - 53) =     -5.29794  eV     1   --> A              
     e( 54 - 54) =     -5.28985  eV     1   --> A              
     e( 55 - 55) =     -4.98994  eV     1   --> A              
     e( 56 - 56) =     -4.98828  eV     1   --> A              
     e( 57 - 57) =     -4.85065  eV     1   --> A              
     e( 58 - 58) =     -4.85019  eV     1   --> A              
     e( 59 - 59) =     -4.84795  eV     1   --> A              
     e( 60 - 60) =     -4.84751  eV     1   --> A              
     e( 61 - 61) =     -4.72964  eV     1   --> A              
     e( 62 - 62) =     -4.67688  eV     1   --> A              
     e( 63 - 63) =     -4.30218  eV     1   --> A              
     e( 64 - 64) =     -4.29165  eV     1   --> A              
     e( 65 - 65) =     -3.98485  eV     1   --> A              
     e( 66 - 66) =     -3.97421  eV     1   --> A              
     e( 67 - 67) =     -3.96429  eV     1   --> A              
     e( 68 - 68) =     -3.95102  eV     1   --> A              
     e( 69 - 69) =     -3.94879  eV     1   --> A              
     e( 70 - 70) =     -3.93551  eV     1   --> A              
     e( 71 - 71) =     -3.93328  eV     1   --> A              
     e( 72 - 72) =     -3.89715  eV     1   --> A              
     e( 73 - 73) =     -3.69937  eV     1   --> A              
     e( 74 - 74) =     -3.69807  eV     1   --> A              
     e( 75 - 75) =     -3.65113  eV     1   --> A              
     e( 76 - 76) =     -3.64983  eV     1   --> A              
     e( 77 - 77) =     -3.23937  eV     1   --> A              
     e( 78 - 78) =     -3.21642  eV     1   --> A              
     e( 79 - 79) =     -3.20497  eV     1   --> A              
     e( 80 - 80) =     -3.19518  eV     1   --> A              
     e( 81 - 81) =     -3.14222  eV     1   --> A              
     e( 82 - 82) =     -3.06291  eV     1   --> A              
     e( 83 - 83) =     -3.04087  eV     1   --> A              
     e( 84 - 84) =     -3.04031  eV     1   --> A              
     e( 85 - 85) =     -3.00492  eV     1   --> A              
     e( 86 - 86) =     -2.86730  eV     1   --> A              
     e( 87 - 87) =     -2.82542  eV     1   --> A              
     e( 88 - 88) =     -2.49311  eV     1   --> A              
     e( 89 - 89) =     -2.48241  eV     1   --> A              
     e( 90 - 90) =     -2.43281  eV     1   --> A              
     e( 91 - 91) =     -2.42249  eV     1   --> A              
     e( 92 - 92) =     -2.12589  eV     1   --> A              
     e( 93 - 93) =     -2.03572  eV     1   --> A              
     e( 94 - 94) =     -2.03435  eV     1   --> A              
     e( 95 - 95) =     -1.99488  eV     1   --> A              
     e( 96 - 96) =     -1.99358  eV     1   --> A              
     e( 97 - 97) =     -1.96481  eV     1   --> A              
     e( 98 - 98) =     -1.96366  eV     1   --> A              
     e( 99 - 99) =     -1.79368  eV     1   --> A              
     e(100 -100) =     -1.76705  eV     1   --> A              
     e(101 -101) =     -0.31448  eV     1   --> A              
     e(102 -102) =     -0.12246  eV     1   --> A              
     e(103 -103) =     -0.11217  eV     1   --> A              
     e(104 -104) =     -0.07627  eV     1   --> A              
     e(105 -105) =     -0.06488  eV     1   --> A              
     e(106 -106) =      0.52374  eV     1   --> A              
     e(107 -107) =      0.78609  eV     1   --> A              
     e(108 -108) =      0.78648  eV     1   --> A              
     e(109 -109) =      0.95929  eV     1   --> A              
     e(110 -110) =      1.01334  eV     1   --> A              
     e(111 -111) =      1.07580  eV     1   --> A              
     e(112 -112) =      1.08177  eV     1   --> A              
     e(113 -113) =      1.26047  eV     1   --> A              
     e(114 -114) =      1.26408  eV     1   --> A              
     e(115 -115) =      1.35894  eV     1   --> A              
     e(116 -116) =      1.40456  eV     1   --> A              
     e(117 -117) =      1.42230  eV     1   --> A              
     e(118 -118) =      1.46408  eV     1   --> A              
     e(119 -119) =      2.07001  eV     1   --> A              
     e(120 -120) =      2.14738  eV     1   --> A              

 **************************************************************************

 **************************************************************************

                    xk=(   0.03333,   0.57735,   0.00000  )

     Band symmetry, C_1 (1)     point group:

     e(  1 -  1) =    -15.31396  eV     1   --> A              
     e(  2 -  2) =    -15.30348  eV     1   --> A              
     e(  3 -  3) =    -14.84509  eV     1   --> A              
     e(  4 -  4) =    -14.74390  eV     1   --> A              
     e(  5 -  5) =    -13.87047  eV     1   --> A              
     e(  6 -  6) =    -13.86884  eV     1   --> A              
     e(  7 -  7) =    -13.77906  eV     1   --> A              
     e(  8 -  8) =    -13.77742  eV     1   --> A              
     e(  9 -  9) =    -13.39722  eV     1   --> A              
     e( 10 - 10) =    -13.39028  eV     1   --> A              
     e( 11 - 11) =    -12.73885  eV     1   --> A              
     e( 12 - 12) =    -12.72855  eV     1   --> A              
     e( 13 - 13) =    -12.62658  eV     1   --> A              
     e( 14 - 14) =    -12.61662  eV     1   --> A              
     e( 15 - 15) =    -12.11330  eV     1   --> A              
     e( 16 - 16) =    -12.06974  eV     1   --> A              
     e( 17 - 17) =    -11.86159  eV     1   --> A              
     e( 18 - 18) =    -11.85881  eV     1   --> A              
     e( 19 - 19) =    -11.34419  eV     1   --> A              
     e( 20 - 20) =    -11.23231  eV     1   --> A              
     e( 21 - 21) =    -10.31179  eV     1   --> A              
     e( 22 - 22) =    -10.31061  eV     1   --> A              
     e( 23 - 23) =    -10.23626  eV     1   --> A              
     e( 24 - 24) =    -10.23486  eV     1   --> A              
     e( 25 - 25) =    -10.18831  eV     1   --> A              
     e( 26 - 26) =     -9.15464  eV     1   --> A              
     e( 27 - 27) =     -9.14871  eV     1   --> A              
     e( 28 - 28) =     -9.07143  eV     1   --> A              
     e( 29 - 29) =     -9.04467  eV     1   --> A              
     e( 30 - 30) =     -9.03853  eV     1   --> A              
     e( 31 - 31) =     -9.02008  eV     1   --> A              
     e( 32 - 32) =     -8.38649  eV     1   --> A              
     e( 33 - 33) =     -8.38057  eV     1   --> A              
     e( 34 - 34) =     -8.36527  eV     1   --> A              
     e( 35 - 35) =     -8.15504  eV     1   --> A              
     e( 36 - 36) =     -8.15465  eV     1   --> A              
     e( 37 - 37) =     -8.03725  eV     1   --> A              
     e( 38 - 38) =     -8.03673  eV     1   --> A              
     e( 39 - 39) =     -7.41615  eV     1   --> A              
     e( 40 - 40) =     -7.41533  eV     1   --> A              
     e( 41 - 41) =     -7.21904  eV     1   --> A              
     e( 42 - 42) =     -7.21829  eV     1   --> A              
     e( 43 - 43) =     -7.04106  eV     1   --> A              
     e( 44 - 44) =     -6.87336  eV     1   --> A              
     e( 45 - 45) =     -6.51033  eV     1   --> A              
     e( 46 - 46) =     -6.27989  eV     1   --> A              
     e( 47 - 47) =     -5.48198  eV     1   --> A              
     e( 48 - 48) =     -5.41246  eV     1   --> A              
     e( 49 - 49) =     -5.40733  eV     1   --> A              
     e( 50 - 50) =     -5.29788  eV     1   --> A              
     e( 51 - 51) =     -5.28961  eV     1   --> A              
     e( 52 - 52) =     -5.28524  eV     1   --> A              
     e( 53 - 53) =     -5.28077  eV     1   --> A              
     e( 54 - 54) =     -5.24784  eV     1   --> A              
     e( 55 - 55) =     -4.99132  eV     1   --> A              
     e( 56 - 56) =     -4.98965  eV     1   --> A              
     e( 57 - 57) =     -4.85093  eV     1   --> A              
     e( 58 - 58) =     -4.85047  eV     1   --> A              
     e( 59 - 59) =     -4.84580  eV     1   --> A              
     e( 60 - 60) =     -4.84535  eV     1   --> A              
     e( 61 - 61) =     -4.75512  eV     1   --> A              
     e( 62 - 62) =     -4.64973  eV     1   --> A              
     e( 63 - 63) =     -4.30570  eV     1   --> A              
     e( 64 - 64) =     -4.29517  eV     1   --> A              
     e( 65 - 65) =     -4.00298  eV     1   --> A              
     e( 66 - 66) =     -3.98190  eV     1   --> A              
     e( 67 - 67) =     -3.97581  eV     1   --> A              
     e( 68 - 68) =     -3.95725  eV     1   --> A              
     e( 69 - 69) =     -3.95501  eV     1   --> A              
     e( 70 - 70) =     -3.92632  eV     1   --> A              
     e( 71 - 71) =     -3.92409  eV     1   --> A              
     e( 72 - 72) =     -3.86348  eV     1   --> A              
     e( 73 - 73) =     -3.72261  eV     1   --> A              
     e( 74 - 74) =     -3.72131  eV     1   --> A              
     e( 75 - 75) =     -3.62664  eV     1   --> A              
     e( 76 - 76) =     -3.62533  eV     1   --> A              
     e( 77 - 77) =     -3.23879  eV     1   --> A              
     e( 78 - 78) =     -3.21587  eV     1   --> A              
     e( 79 - 79) =     -3.20727  eV     1   --> A              
     e( 80 - 80) =     -3.19752  eV     1   --> A              
     e( 81 - 81) =     -3.18176  eV     1   --> A              
     e( 82 - 82) =     -3.04107  eV     1   --> A              
     e( 83 - 83) =     -3.04050  eV     1   --> A              
     e( 84 - 84) =     -3.02317  eV     1   --> A              
     e( 85 - 85) =     -3.01191  eV     1   --> A              
     e( 86 - 86) =     -2.88709  eV     1   --> A              
     e( 87 - 87) =     -2.80343  eV     1   --> A              
     e( 88 - 88) =     -2.52371  eV     1   --> A              
     e( 89 - 89) =     -2.51312  eV     1   --> A              
     e( 90 - 90) =     -2.40432  eV     1   --> A              
     e( 91 - 91) =     -2.39388  eV     1   --> A              
     e( 92 - 92) =     -2.12239  eV     1   --> A              
     e( 93 - 93) =     -2.03924  eV     1   --> A              
     e( 94 - 94) =     -2.03788  eV     1   --> A              
     e( 95 - 95) =     -2.01043  eV     1   --> A              
     e( 96 - 96) =     -2.00903  eV     1   --> A              
     e( 97 - 97) =     -1.95048  eV     1   --> A              
     e( 98 - 98) =     -1.94945  eV     1   --> A              
     e( 99 - 99) =     -1.80677  eV     1   --> A              
     e(100 -100) =     -1.75113  eV     1   --> A              
     e(101 -101) =     -0.31475  eV     1   --> A              
     e(102 -102) =     -0.14490  eV     1   --> A              
     e(103 -103) =     -0.13510  eV     1   --> A              
     e(104 -104) =     -0.05273  eV     1   --> A              
     e(105 -105) =     -0.04076  eV     1   --> A              
     e(106 -106) =      0.53071  eV     1   --> A              
     e(107 -107) =      0.79247  eV     1   --> A              
     e(108 -108) =      0.79285  eV     1   --> A              
     e(109 -109) =      0.93116  eV     1   --> A              
     e(110 -110) =      1.03895  eV     1   --> A              
     e(111 -111) =      1.07295  eV     1   --> A              
     e(112 -112) =      1.08414  eV     1   --> A              
     e(113 -113) =      1.26077  eV     1   --> A              
     e(114 -114) =      1.26439  eV     1   --> A              
     e(115 -115) =      1.32974  eV     1   --> A              
     e(116 -116) =      1.37684  eV     1   --> A              
     e(117 -117) =      1.45526  eV     1   --> A              
     e(118 -118) =      1.49479  eV     1   --> A              
     e(119 -119) =      2.03201  eV     1   --> A              
     e(120 -120) =      2.10767  eV     1   --> A              

 **************************************************************************

 **************************************************************************

                    xk=(   0.05000,   0.57735,   0.00000  )

     Band symmetry, C_1 (1)     point group:

     e(  1 -  1) =    -15.31282  eV     1   --> A              
     e(  2 -  2) =    -15.30234  eV     1   --> A              
     e(  3 -  3) =    -14.86950  eV     1   --> A              
     e(  4 -  4) =    -14.71759  eV     1   --> A              
     e(  5 -  5) =    -13.89268  eV     1   --> A              
     e(  6 -  6) =    -13.89105  eV     1   --> A              
     e(  7 -  7) =    -13.75549  eV     1   --> A              
     e(  8 -  8) =    -13.75384  eV     1   --> A              
     e(  9 -  9) =    -13.39622  eV     1   --> A              
     e( 10 - 10) =    -13.38928  eV     1   --> A              
     e( 11 - 11) =    -12.76842  eV     1   --> A              
     e( 12 - 12) =    -12.75815  eV     1   --> A              
     e( 13 - 13) =    -12.60057  eV     1   --> A              
     e( 14 - 14) =    -12.59059  eV     1   --> A              
     e( 15 - 15) =    -12.12463  eV     1   --> A              
     e( 16 - 16) =    -12.05939  eV     1   --> A              
     e( 17 - 17) =    -11.86037  eV     1   --> A              
     e( 18 - 18) =    -11.85759  eV     1   --> A              
     e( 19 - 19) =    -11.37108  eV     1   --> A              
     e( 20 - 20) =    -11.20335  eV     1   --> A              
     e( 21 - 21) =    -10.33137  eV     1   --> A              
     e( 22 - 22) =    -10.33022  eV     1   --> A              
     e( 23 - 23) =    -10.21854  eV     1   --> A              
     e( 24 - 24) =    -10.21705  eV     1   --> A              
     e( 25 - 25) =    -10.18676  eV     1   --> A              
     e( 26 - 26) =     -9.17800  eV     1   --> A              
     e( 27 - 27) =     -9.17209  eV     1   --> A              
     e( 28 - 28) =     -9.08502  eV     1   --> A              
     e( 29 - 29) =     -9.01588  eV     1   --> A              
     e( 30 - 30) =     -9.00923  eV     1   --> A              
     e( 31 - 31) =     -9.00542  eV     1   --> A              
     e( 32 - 32) =     -8.38597  eV     1   --> A              
     e( 33 - 33) =     -8.37996  eV     1   --> A              
     e( 34 - 34) =     -8.36565  eV     1   --> A              
     e( 35 - 35) =     -8.18297  eV     1   --> A              
     e( 36 - 36) =     -8.18261  eV     1   --> A              
     e( 37 - 37) =     -8.00671  eV     1   --> A              
     e( 38 - 38) =     -8.00615  eV     1   --> A              
     e( 39 - 39) =     -7.46681  eV     1   --> A              
     e( 40 - 40) =     -7.46597  eV     1   --> A              
     e( 41 - 41) =     -7.17112  eV     1   --> A              
     e( 42 - 42) =     -7.17040  eV     1   --> A              
     e( 43 - 43) =     -7.07921  eV     1   --> A              
     e( 44 - 44) =     -6.82833  eV     1   --> A              
     e( 45 - 45) =     -6.56765  eV     1   --> A              
     e( 46 - 46) =     -6.22219  eV     1   --> A              
     e( 47 - 47) =     -5.54007  eV     1   --> A              
     e( 48 - 48) =     -5.44368  eV     1   --> A              
     e( 49 - 49) =     -5.43862  eV     1   --> A              
     e( 50 - 50) =     -5.29677  eV     1   --> A              
     e( 51 - 51) =     -5.28844  eV     1   --> A              
     e( 52 - 52) =     -5.25374  eV     1   --> A              
     e( 53 - 53) =     -5.24906  eV     1   --> A              
     e( 54 - 54) =     -5.18989  eV     1   --> A              
     e( 55 - 55) =     -4.99338  eV     1   --> A              
     e( 56 - 56) =     -4.99181  eV     1   --> A              
     e( 57 - 57) =     -4.85144  eV     1   --> A              
     e( 58 - 58) =     -4.85098  eV     1   --> A              
     e( 59 - 59) =     -4.84286  eV     1   --> A              
     e( 60 - 60) =     -4.84241  eV     1   --> A              
     e( 61 - 61) =     -4.78051  eV     1   --> A              
     e( 62 - 62) =     -4.62215  eV     1   --> A              
     e( 63 - 63) =     -4.31120  eV     1   --> A              
     e( 64 - 64) =     -4.30068  eV     1   --> A              
     e( 65 - 65) =     -4.03622  eV     1   --> A              
     e( 66 - 66) =     -3.98573  eV     1   --> A              
     e( 67 - 67) =     -3.97844  eV     1   --> A              
     e( 68 - 68) =     -3.96243  eV     1   --> A              
     e( 69 - 69) =     -3.96020  eV     1   --> A              
     e( 70 - 70) =     -3.91620  eV     1   --> A              
     e( 71 - 71) =     -3.91397  eV     1   --> A              
     e( 72 - 72) =     -3.83125  eV     1   --> A              
     e( 73 - 73) =     -3.74590  eV     1   --> A              
     e( 74 - 74) =     -3.74460  eV     1   --> A              
     e( 75 - 75) =     -3.60230  eV     1   --> A              
     e( 76 - 76) =     -3.60099  eV     1   --> A              
     e( 77 - 77) =     -3.23756  eV     1   --> A              
     e( 78 - 78) =     -3.22122  eV     1   --> A              
     e( 79 - 79) =     -3.21470  eV     1   --> A              
     e( 80 - 80) =     -3.20982  eV     1   --> A              
     e( 81 - 81) =     -3.20010  eV     1   --> A              
     e( 82 - 82) =     -3.04135  eV     1   --> A              
     e( 83 - 83) =     -3.04077  eV     1   --> A              
     e( 84 - 84) =     -3.02338  eV     1   --> A              
     e( 85 - 85) =     -2.98349  eV     1   --> A              
     e( 86 - 86) =     -2.90609  eV     1   --> A              
     e( 87 - 87) =     -2.78076  eV     1   --> A              
     e( 88 - 88) =     -2.55524  eV     1   --> A              
     e( 89 - 89) =     -2.54467  eV     1   --> A              
     e( 90 - 90) =     -2.37646  eV     1   --> A              
     e( 91 - 91) =     -2.36597  eV     1   --> A              
     e( 92 - 92) =     -2.11667  eV     1   --> A              
     e( 93 - 93) =     -2.04506  eV     1   --> A              
     e( 94 - 94) =     -2.04371  eV     1   --> A              
     e( 95 - 95) =     -2.02626  eV     1   --> A              
     e( 96 - 96) =     -2.02476  eV     1   --> A              
     e( 97 - 97) =     -1.93680  eV     1   --> A              
     e( 98 - 98) =     -1.93582  eV     1   --> A              
     e( 99 - 99) =     -1.82058  eV     1   --> A              
     e(100 -100) =     -1.73847  eV     1   --> A              
     e(101 -101) =     -0.31519  eV     1   --> A              
     e(102 -102) =     -0.16679  eV     1   --> A              
     e(103 -103) =     -0.15748  eV     1   --> A              
     e(104 -104) =     -0.02902  eV     1   --> A              
     e(105 -105) =     -0.01642  eV     1   --> A              
     e(106 -106) =      0.54231  eV     1   --> A              
     e(107 -107) =      0.80300  eV     1   --> A              
     e(108 -108) =      0.80338  eV     1   --> A              
     e(109 -109) =      0.90238  eV     1   --> A              
     e(110 -110) =      1.06248  eV     1   --> A              
     e(111 -111) =      1.07081  eV     1   --> A              
     e(112 -112) =      1.08627  eV     1   --> A              
     e(113 -113) =      1.26129  eV     1   --> A              
     e(114 -114) =      1.26491  eV     1   --> A              
     e(115 -115) =      1.30180  eV     1   --> A              
     e(116 -116) =      1.35007  eV     1   --> A              
     e(117 -117) =      1.48938  eV     1   --> A              
     e(118 -118) =      1.52644  eV     1   --> A              
     e(119 -119) =      1.99403  eV     1   --> A              
     e(120 -120) =      2.06205  eV     1   --> A              

 **************************************************************************

 **************************************************************************

                    xk=(   0.06667,   0.57735,   0.00000  )

     Band symmetry, C_1 (1)     point group:

     e(  1 -  1) =    -15.31128  eV     1   --> A              
     e(  2 -  2) =    -15.30079  eV     1   --> A              
     e(  3 -  3) =    -14.89352  eV     1   --> A              
     e(  4 -  4) =    -14.69114  eV     1   --> A              
     e(  5 -  5) =    -13.91452  eV     1   --> A              
     e(  6 -  6) =    -13.91290  eV     1   --> A              
     e(  7 -  7) =    -13.73162  eV     1   --> A              
     e(  8 -  8) =    -13.72997  eV     1   --> A              
     e(  9 -  9) =    -13.39491  eV     1   --> A              
     e( 10 - 10) =    -13.38797  eV     1   --> A              
     e( 11 - 11) =    -12.79853  eV     1   --> A              
     e( 12 - 12) =    -12.78827  eV     1   --> A              
     e( 13 - 13) =    -12.57534  eV     1   --> A              
     e( 14 - 14) =    -12.56536  eV     1   --> A              
     e( 15 - 15) =    -12.13609  eV     1   --> A              
     e( 16 - 16) =    -12.04939  eV     1   --> A              
     e( 17 - 17) =    -11.85867  eV     1   --> A              
     e( 18 - 18) =    -11.85589  eV     1   --> A              
     e( 19 - 19) =    -11.39756  eV     1   --> A              
     e( 20 - 20) =    -11.17400  eV     1   --> A              
     e( 21 - 21) =    -10.35110  eV     1   --> A              
     e( 22 - 22) =    -10.34999  eV     1   --> A              
     e( 23 - 23) =    -10.20146  eV     1   --> A              
     e( 24 - 24) =    -10.19980  eV     1   --> A              
     e( 25 - 25) =    -10.18474  eV     1   --> A              
     e( 26 - 26) =     -9.20037  eV     1   --> A              
     e( 27 - 27) =     -9.19448  eV     1   --> A              
     e( 28 - 28) =     -9.09883  eV     1   --> A              
     e( 29 - 29) =     -8.99845  eV     1   --> A              
     e( 30 - 30) =     -8.98176  eV     1   --> A              
     e( 31 - 31) =     -8.97657  eV     1   --> A              
     e( 32 - 32) =     -8.38539  eV     1   --> A              
     e( 33 - 33) =     -8.37919  eV     1   --> A              
     e( 34 - 34) =     -8.36615  eV     1   --> A              
     e( 35 - 35) =     -8.21007  eV     1   --> A              
     e( 36 - 36) =     -8.20972  eV     1   --> A              
     e( 37 - 37) =     -7.97586  eV     1   --> A              
     e( 38 - 38) =     -7.97527  eV     1   --> A              
     e( 39 - 39) =     -7.51775  eV     1   --> A              
     e( 40 - 40) =     -7.51689  eV     1   --> A              
     e( 41 - 41) =     -7.12371  eV     1   --> A              
     e( 42 - 42) =     -7.12296  eV     1   --> A              
     e( 43 - 43) =     -7.11599  eV     1   --> A              
     e( 44 - 44) =     -6.78217  eV     1   --> A              
     e( 45 - 45) =     -6.62484  eV     1   --> A              
     e( 46 - 46) =     -6.16445  eV     1   --> A              
     e( 47 - 47) =     -5.59758  eV     1   --> A              
     e( 48 - 48) =     -5.47485  eV     1   --> A              
     e( 49 - 49) =     -5.46982  eV     1   --> A              
     e( 50 - 50) =     -5.29590  eV     1   --> A              
     e( 51 - 51) =     -5.28762  eV     1   --> A              
     e( 52 - 52) =     -5.22187  eV     1   --> A              
     e( 53 - 53) =     -5.21712  eV     1   --> A              
     e( 54 - 54) =     -5.13188  eV     1   --> A              
     e( 55 - 55) =     -4.99659  eV     1   --> A              
     e( 56 - 56) =     -4.99498  eV     1   --> A              
     e( 57 - 57) =     -4.85140  eV     1   --> A              
     e( 58 - 58) =     -4.85093  eV     1   --> A              
     e( 59 - 59) =     -4.83910  eV     1   --> A              
     e( 60 - 60) =     -4.83865  eV     1   --> A              
     e( 61 - 61) =     -4.80544  eV     1   --> A              
     e( 62 - 62) =     -4.59560  eV     1   --> A              
     e( 63 - 63) =     -4.31841  eV     1   --> A              
     e( 64 - 64) =     -4.30789  eV     1   --> A              
     e( 65 - 65) =     -4.07114  eV     1   --> A              
     e( 66 - 66) =     -3.98980  eV     1   --> A              
     e( 67 - 67) =     -3.98231  eV     1   --> A              
     e( 68 - 68) =     -3.96657  eV     1   --> A              
     e( 69 - 69) =     -3.96433  eV     1   --> A              
     e( 70 - 70) =     -3.90516  eV     1   --> A              
     e( 71 - 71) =     -3.90293  eV     1   --> A              
     e( 72 - 72) =     -3.79946  eV     1   --> A              
     e( 73 - 73) =     -3.76908  eV     1   --> A              
     e( 74 - 74) =     -3.76778  eV     1   --> A              
     e( 75 - 75) =     -3.57696  eV     1   --> A              
     e( 76 - 76) =     -3.57564  eV     1   --> A              
     e( 77 - 77) =     -3.26055  eV     1   --> A              
     e( 78 - 78) =     -3.23587  eV     1   --> A              
     e( 79 - 79) =     -3.21387  eV     1   --> A              
     e( 80 - 80) =     -3.21311  eV     1   --> A              
     e( 81 - 81) =     -3.20423  eV     1   --> A              
     e( 82 - 82) =     -3.04176  eV     1   --> A              
     e( 83 - 83) =     -3.04123  eV     1   --> A              
     e( 84 - 84) =     -3.03900  eV     1   --> A              
     e( 85 - 85) =     -2.94391  eV     1   --> A              
     e( 86 - 86) =     -2.92419  eV     1   --> A              
     e( 87 - 87) =     -2.75748  eV     1   --> A              
     e( 88 - 88) =     -2.58832  eV     1   --> A              
     e( 89 - 89) =     -2.57774  eV     1   --> A              
     e( 90 - 90) =     -2.34962  eV     1   --> A              
     e( 91 - 91) =     -2.33909  eV     1   --> A              
     e( 92 - 92) =     -2.10893  eV     1   --> A              
     e( 93 - 93) =     -2.05309  eV     1   --> A              
     e( 94 - 94) =     -2.05175  eV     1   --> A              
     e( 95 - 95) =     -2.04227  eV     1   --> A              
     e( 96 - 96) =     -2.04068  eV     1   --> A              
     e( 97 - 97) =     -1.92378  eV     1   --> A              
     e( 98 - 98) =     -1.92282  eV     1   --> A              
     e( 99 - 99) =     -1.83451  eV     1   --> A              
     e(100 -100) =     -1.72652  eV     1   --> A              
     e(101 -101) =     -0.31582  eV     1   --> A              
     e(102 -102) =     -0.18804  eV     1   --> A              
     e(103 -103) =     -0.17918  eV     1   --> A              
     e(104 -104) =     -0.00521  eV     1   --> A              
     e(105 -105) =      0.00804  eV     1   --> A              
     e(106 -106) =      0.55846  eV     1   --> A              
     e(107 -107) =      0.81754  eV     1   --> A              
     e(108 -108) =      0.81792  eV     1   --> A              
     e(109 -109) =      0.87301  eV     1   --> A              
     e(110 -110) =      1.06519  eV     1   --> A              
     e(111 -111) =      1.08770  eV     1   --> A              
     e(112 -112) =      1.08859  eV     1   --> A              
     e(113 -113) =      1.26201  eV     1   --> A              
     e(114 -114) =      1.26564  eV     1   --> A              
     e(115 -115) =      1.27523  eV     1   --> A              
     e(116 -116) =      1.32438  eV     1   --> A              
     e(117 -117) =      1.52431  eV     1   --> A              
     e(118 -118) =      1.55874  eV     1   --> A              
     e(119 -119) =      1.95609  eV     1   --> A              
     e(120 -120) =      2.01668  eV     1   --> A              

 **************************************************************************

 **************************************************************************

                    xk=(   0.08333,   0.57735,   0.00000  )

     Band symmetry, C_1 (1)     point group:

     e(  1 -  1) =    -15.30926  eV     1   --> A              
     e(  2 -  2) =    -15.29877  eV     1   --> A              
     e(  3 -  3) =    -14.91701  eV     1   --> A              
     e(  4 -  4) =    -14.66414  eV     1   --> A              
     e(  5 -  5) =    -13.93610  eV     1   --> A              
     e(  6 -  6) =    -13.93448  eV     1   --> A              
     e(  7 -  7) =    -13.70747  eV     1   --> A              
     e(  8 -  8) =    -13.70582  eV     1   --> A              
     e(  9 -  9) =    -13.39330  eV     1   --> A              
     e( 10 - 10) =    -13.38636  eV     1   --> A              
     e( 11 - 11) =    -12.82915  eV     1   --> A              
     e( 12 - 12) =    -12.81888  eV     1   --> A              
     e( 13 - 13) =    -12.55098  eV     1   --> A              
     e( 14 - 14) =    -12.54101  eV     1   --> A              
     e( 15 - 15) =    -12.14764  eV     1   --> A              
     e( 16 - 16) =    -12.03964  eV     1   --> A              
     e( 17 - 17) =    -11.85646  eV     1   --> A              
     e( 18 - 18) =    -11.85368  eV     1   --> A              
     e( 19 - 19) =    -11.42377  eV     1   --> A              
     e( 20 - 20) =    -11.14422  eV     1   --> A              
     e( 21 - 21) =    -10.37092  eV     1   --> A              
     e( 22 - 22) =    -10.36984  eV     1   --> A              
     e( 23 - 23) =    -10.18583  eV     1   --> A              
     e( 24 - 24) =    -10.18315  eV     1   --> A              
     e( 25 - 25) =    -10.18121  eV     1   --> A              
     e( 26 - 26) =     -9.22098  eV     1   --> A              
     e( 27 - 27) =     -9.21509  eV     1   --> A              
     e( 28 - 28) =     -9.11282  eV     1   --> A              
     e( 29 - 29) =     -8.98715  eV     1   --> A              
     e( 30 - 30) =     -8.94921  eV     1   --> A              
     e( 31 - 31) =     -8.94366  eV     1   --> A              
     e( 32 - 32) =     -8.38475  eV     1   --> A              
     e( 33 - 33) =     -8.37824  eV     1   --> A              
     e( 34 - 34) =     -8.36673  eV     1   --> A              
     e( 35 - 35) =     -8.23619  eV     1   --> A              
     e( 36 - 36) =     -8.23585  eV     1   --> A              
     e( 37 - 37) =     -7.94484  eV     1   --> A              
     e( 38 - 38) =     -7.94421  eV     1   --> A              
     e( 39 - 39) =     -7.56879  eV     1   --> A              
     e( 40 - 40) =     -7.56792  eV     1   --> A              
     e( 41 - 41) =     -7.15082  eV     1   --> A              
     e( 42 - 42) =     -7.07731  eV     1   --> A              
     e( 43 - 43) =     -7.07664  eV     1   --> A              
     e( 44 - 44) =     -6.73497  eV     1   --> A              
     e( 45 - 45) =     -6.68172  eV     1   --> A              
     e( 46 - 46) =     -6.10682  eV     1   --> A              
     e( 47 - 47) =     -5.65635  eV     1   --> A              
     e( 48 - 48) =     -5.50565  eV     1   --> A              
     e( 49 - 49) =     -5.50065  eV     1   --> A              
     e( 50 - 50) =     -5.29467  eV     1   --> A              
     e( 51 - 51) =     -5.28644  eV     1   --> A              
     e( 52 - 52) =     -5.18982  eV     1   --> A              
     e( 53 - 53) =     -5.18503  eV     1   --> A              
     e( 54 - 54) =     -5.07331  eV     1   --> A              
     e( 55 - 55) =     -5.00059  eV     1   --> A              
     e( 56 - 56) =     -4.99893  eV     1   --> A              
     e( 57 - 57) =     -4.84980  eV     1   --> A              
     e( 58 - 58) =     -4.84933  eV     1   --> A              
     e( 59 - 59) =     -4.83451  eV     1   --> A              
     e( 60 - 60) =     -4.83406  eV     1   --> A              
     e( 61 - 61) =     -4.83035  eV     1   --> A              
     e( 62 - 62) =     -4.56720  eV     1   --> A              
     e( 63 - 63) =     -4.32985  eV     1   --> A              
     e( 64 - 64) =     -4.31934  eV     1   --> A              
     e( 65 - 65) =     -4.10676  eV     1   --> A              
     e( 66 - 66) =     -3.99467  eV     1   --> A              
     e( 67 - 67) =     -3.98717  eV     1   --> A              
     e( 68 - 68) =     -3.96966  eV     1   --> A              
     e( 69 - 69) =     -3.96742  eV     1   --> A              
     e( 70 - 70) =     -3.89323  eV     1   --> A              
     e( 71 - 71) =     -3.89100  eV     1   --> A              
     e( 72 - 72) =     -3.79259  eV     1   --> A              
     e( 73 - 73) =     -3.79128  eV     1   --> A              
     e( 74 - 74) =     -3.76811  eV     1   --> A              
     e( 75 - 75) =     -3.55119  eV     1   --> A              
     e( 76 - 76) =     -3.54988  eV     1   --> A              
     e( 77 - 77) =     -3.29974  eV     1   --> A              
     e( 78 - 78) =     -3.23330  eV     1   --> A              
     e( 79 - 79) =     -3.21679  eV     1   --> A              
     e( 80 - 80) =     -3.21067  eV     1   --> A              
     e( 81 - 81) =     -3.20724  eV     1   --> A              
     e( 82 - 82) =     -3.05859  eV     1   --> A              
     e( 83 - 83) =     -3.04229  eV     1   --> A              
     e( 84 - 84) =     -3.04167  eV     1   --> A              
     e( 85 - 85) =     -2.94174  eV     1   --> A              
     e( 86 - 86) =     -2.90410  eV     1   --> A              
     e( 87 - 87) =     -2.73354  eV     1   --> A              
     e( 88 - 88) =     -2.62066  eV     1   --> A              
     e( 89 - 89) =     -2.61003  eV     1   --> A              
     e( 90 - 90) =     -2.32368  eV     1   --> A              
     e( 91 - 91) =     -2.31314  eV     1   --> A              
     e( 92 - 92) =     -2.09944  eV     1   --> A              
     e( 93 - 93) =     -2.06320  eV     1   --> A              
     e( 94 - 94) =     -2.06190  eV     1   --> A              
     e( 95 - 95) =     -2.05832  eV     1   --> A              
     e( 96 - 96) =     -2.05668  eV     1   --> A              
     e( 97 - 97) =     -1.91150  eV     1   --> A              
     e( 98 - 98) =     -1.91052  eV     1   --> A              
     e( 99 - 99) =     -1.84854  eV     1   --> A              
     e(100 -100) =     -1.71459  eV     1   --> A              
     e(101 -101) =     -0.31664  eV     1   --> A              
     e(102 -102) =     -0.20849  eV     1   --> A              
     e(103 -103) =     -0.20007  eV     1   --> A              
     e(104 -104) =      0.01862  eV     1   --> A              
     e(105 -105) =      0.03255  eV     1   --> A              
     e(106 -106) =      0.57907  eV     1   --> A              
     e(107 -107) =      0.83594  eV     1   --> A              
     e(108 -108) =      0.83632  eV     1   --> A              
     e(109 -109) =      0.84317  eV     1   --> A              
     e(110 -110) =      1.06171  eV     1   --> A              
     e(111 -111) =      1.08968  eV     1   --> A              
     e(112 -112) =      1.11044  eV     1   --> A              
     e(113 -113) =      1.25012  eV     1   --> A              
     e(114 -114) =      1.26292  eV     1   --> A              
     e(115 -115) =      1.26656  eV     1   --> A              
     e(116 -116) =      1.29988  eV     1   --> A              
     e(117 -117) =      1.56057  eV     1   --> A              
     e(118 -118) =      1.59220  eV     1   --> A              
     e(119 -119) =      1.91808  eV     1   --> A              
     e(120 -120) =      1.97160  eV     1   --> A              

 **************************************************************************

 **************************************************************************

                    xk=(   0.10000,   0.57735,   0.00000  )

     Band symmetry, C_1 (1)     point group:

     e(  1 -  1) =    -15.30686  eV     1   --> A              
     e(  2 -  2) =    -15.29637  eV     1   --> A              
     e(  3 -  3) =    -14.94024  eV     1   --> A              
     e(  4 -  4) =    -14.63672  eV     1   --> A              
     e(  5 -  5) =    -13.95726  eV     1   --> A              
     e(  6 -  6) =    -13.95564  eV     1   --> A              
     e(  7 -  7) =    -13.68303  eV     1   --> A              
     e(  8 -  8) =    -13.68137  eV     1   --> A              
     e(  9 -  9) =    -13.39122  eV     1   --> A              
     e( 10 - 10) =    -13.38427  eV     1   --> A              
     e( 11 - 11) =    -12.86029  eV     1   --> A              
     e( 12 - 12) =    -12.85002  eV     1   --> A              
     e( 13 - 13) =    -12.52762  eV     1   --> A              
     e( 14 - 14) =    -12.51767  eV     1   --> A              
     e( 15 - 15) =    -12.15912  eV     1   --> A              
     e( 16 - 16) =    -12.03022  eV     1   --> A              
     e( 17 - 17) =    -11.85375  eV     1   --> A              
     e( 18 - 18) =    -11.85097  eV     1   --> A              
     e( 19 - 19) =    -11.44949  eV     1   --> A              
     e( 20 - 20) =    -11.11404  eV     1   --> A              
     e( 21 - 21) =    -10.39080  eV     1   --> A              
     e( 22 - 22) =    -10.38975  eV     1   --> A              
     e( 23 - 23) =    -10.17997  eV     1   --> A              
     e( 24 - 24) =    -10.16833  eV     1   --> A              
     e( 25 - 25) =    -10.16709  eV     1   --> A              
     e( 26 - 26) =     -9.24054  eV     1   --> A              
     e( 27 - 27) =     -9.23466  eV     1   --> A              
     e( 28 - 28) =     -9.12647  eV     1   --> A              
     e( 29 - 29) =     -8.97639  eV     1   --> A              
     e( 30 - 30) =     -8.91531  eV     1   --> A              
     e( 31 - 31) =     -8.90967  eV     1   --> A              
     e( 32 - 32) =     -8.38423  eV     1   --> A              
     e( 33 - 33) =     -8.37721  eV     1   --> A              
     e( 34 - 34) =     -8.36723  eV     1   --> A              
     e( 35 - 35) =     -8.26118  eV     1   --> A              
     e( 36 - 36) =     -8.26083  eV     1   --> A              
     e( 37 - 37) =     -7.91371  eV     1   --> A              
     e( 38 - 38) =     -7.91304  eV     1   --> A              
     e( 39 - 39) =     -7.62014  eV     1   --> A              
     e( 40 - 40) =     -7.61926  eV     1   --> A              
     e( 41 - 41) =     -7.18322  eV     1   --> A              
     e( 42 - 42) =     -7.03154  eV     1   --> A              
     e( 43 - 43) =     -7.03089  eV     1   --> A              
     e( 44 - 44) =     -6.73840  eV     1   --> A              
     e( 45 - 45) =     -6.68583  eV     1   --> A              
     e( 46 - 46) =     -6.04932  eV     1   --> A              
     e( 47 - 47) =     -5.71427  eV     1   --> A              
     e( 48 - 48) =     -5.53663  eV     1   --> A              
     e( 49 - 49) =     -5.53165  eV     1   --> A              
     e( 50 - 50) =     -5.29343  eV     1   --> A              
     e( 51 - 51) =     -5.28527  eV     1   --> A              
     e( 52 - 52) =     -5.15795  eV     1   --> A              
     e( 53 - 53) =     -5.15313  eV     1   --> A              
     e( 54 - 54) =     -5.01611  eV     1   --> A              
     e( 55 - 55) =     -5.00543  eV     1   --> A              
     e( 56 - 56) =     -5.00379  eV     1   --> A              
     e( 57 - 57) =     -4.85476  eV     1   --> A              
     e( 58 - 58) =     -4.84624  eV     1   --> A              
     e( 59 - 59) =     -4.84573  eV     1   --> A              
     e( 60 - 60) =     -4.82867  eV     1   --> A              
     e( 61 - 61) =     -4.82821  eV     1   --> A              
     e( 62 - 62) =     -4.53840  eV     1   --> A              
     e( 63 - 63) =     -4.34194  eV     1   --> A              
     e( 64 - 64) =     -4.33143  eV     1   --> A              
     e( 65 - 65) =     -4.14254  eV     1   --> A              
     e( 66 - 66) =     -4.00084  eV     1   --> A              
     e( 67 - 67) =     -3.99340  eV     1   --> A              
     e( 68 - 68) =     -3.97167  eV     1   --> A              
     e( 69 - 69) =     -3.96944  eV     1   --> A              
     e( 70 - 70) =     -3.88045  eV     1   --> A              
     e( 71 - 71) =     -3.87822  eV     1   --> A              
     e( 72 - 72) =     -3.81464  eV     1   --> A              
     e( 73 - 73) =     -3.81334  eV     1   --> A              
     e( 74 - 74) =     -3.73831  eV     1   --> A              
     e( 75 - 75) =     -3.52546  eV     1   --> A              
     e( 76 - 76) =     -3.52415  eV     1   --> A              
     e( 77 - 77) =     -3.33876  eV     1   --> A              
     e( 78 - 78) =     -3.23132  eV     1   --> A              
     e( 79 - 79) =     -3.22174  eV     1   --> A              
     e( 80 - 80) =     -3.21231  eV     1   --> A              
     e( 81 - 81) =     -3.20892  eV     1   --> A              
     e( 82 - 82) =     -3.08148  eV     1   --> A              
     e( 83 - 83) =     -3.04293  eV     1   --> A              
     e( 84 - 84) =     -3.04231  eV     1   --> A              
     e( 85 - 85) =     -2.95814  eV     1   --> A              
     e( 86 - 86) =     -2.86465  eV     1   --> A              
     e( 87 - 87) =     -2.70901  eV     1   --> A              
     e( 88 - 88) =     -2.65331  eV     1   --> A              
     e( 89 - 89) =     -2.64258  eV     1   --> A              
     e( 90 - 90) =     -2.29907  eV     1   --> A              
     e( 91 - 91) =     -2.28855  eV     1   --> A              
     e( 92 - 92) =     -2.08856  eV     1   --> A              
     e( 93 - 93) =     -2.07535  eV     1   --> A              
     e( 94 - 94) =     -2.07480  eV     1   --> A              
     e( 95 - 95) =     -2.07341  eV     1   --> A              
     e( 96 - 96) =     -2.07246  eV     1   --> A              
     e( 97 - 97) =     -1.90007  eV     1   --> A              
     e( 98 - 98) =     -1.89904  eV     1   --> A              
     e( 99 - 99) =     -1.86145  eV     1   --> A              
     e(100 -100) =     -1.70213  eV     1   --> A              
     e(101 -101) =     -0.31766  eV     1   --> A              
     e(102 -102) =     -0.22806  eV     1   --> A              
     e(103 -103) =     -0.22007  eV     1   --> A              
     e(104 -104) =      0.04238  eV     1   --> A              
     e(105 -105) =      0.05705  eV     1   --> A              
     e(106 -106) =      0.60407  eV     1   --> A              
     e(107 -107) =      0.81281  eV     1   --> A              
     e(108 -108) =      0.85799  eV     1   --> A              
     e(109 -109) =      0.85833  eV     1   --> A              
     e(110 -110) =      1.05794  eV     1   --> A              
     e(111 -111) =      1.09109  eV     1   --> A              
     e(112 -112) =      1.13159  eV     1   --> A              
     e(113 -113) =      1.22646  eV     1   --> A              
     e(114 -114) =      1.26397  eV     1   --> A              
     e(115 -115) =      1.26762  eV     1   --> A              
     e(116 -116) =      1.27661  eV     1   --> A              
     e(117 -117) =      1.59760  eV     1   --> A              
     e(118 -118) =      1.62630  eV     1   --> A              
     e(119 -119) =      1.88015  eV     1   --> A              
     e(120 -120) =      1.92729  eV     1   --> A              

 **************************************************************************

 **************************************************************************

                    xk=(   0.11667,   0.57735,   0.00000  )

     Band symmetry, C_1 (1)     point group:

     e(  1 -  1) =    -15.30411  eV     1   --> A              
     e(  2 -  2) =    -15.29361  eV     1   --> A              
     e(  3 -  3) =    -14.96301  eV     1   --> A              
     e(  4 -  4) =    -14.60899  eV     1   --> A              
     e(  5 -  5) =    -13.97817  eV     1   --> A              
     e(  6 -  6) =    -13.97655  eV     1   --> A              
     e(  7 -  7) =    -13.65849  eV     1   --> A              
     e(  8 -  8) =    -13.65683  eV     1   --> A              
     e(  9 -  9) =    -13.38867  eV     1   --> A              
     e( 10 - 10) =    -13.38173  eV     1   --> A              
     e( 11 - 11) =    -12.89187  eV     1   --> A              
     e( 12 - 12) =    -12.88160  eV     1   --> A              
     e( 13 - 13) =    -12.50528  eV     1   --> A              
     e( 14 - 14) =    -12.49534  eV     1   --> A              
     e( 15 - 15) =    -12.17083  eV     1   --> A              
     e( 16 - 16) =    -12.02130  eV     1   --> A              
     e( 17 - 17) =    -11.85061  eV     1   --> A              
     e( 18 - 18) =    -11.84783  eV     1   --> A              
     e( 19 - 19) =    -11.47482  eV     1   --> A              
     e( 20 - 20) =    -11.08372  eV     1   --> A              
     e( 21 - 21) =    -10.41072  eV     1   --> A              
     e( 22 - 22) =    -10.40969  eV     1   --> A              
     e( 23 - 23) =    -10.17613  eV     1   --> A              
     e( 24 - 24) =    -10.15347  eV     1   --> A              
     e( 25 - 25) =    -10.15200  eV     1   --> A              
     e( 26 - 26) =     -9.25800  eV     1   --> A              
     e( 27 - 27) =     -9.25213  eV     1   --> A              
     e( 28 - 28) =     -9.14082  eV     1   --> A              
     e( 29 - 29) =     -8.96738  eV     1   --> A              
     e( 30 - 30) =     -8.88026  eV     1   --> A              
     e( 31 - 31) =     -8.87456  eV     1   --> A              
     e( 32 - 32) =     -8.38385  eV     1   --> A              
     e( 33 - 33) =     -8.37588  eV     1   --> A              
     e( 34 - 34) =     -8.36736  eV     1   --> A              
     e( 35 - 35) =     -8.28497  eV     1   --> A              
     e( 36 - 36) =     -8.28459  eV     1   --> A              
     e( 37 - 37) =     -7.88256  eV     1   --> A              
     e( 38 - 38) =     -7.88186  eV     1   --> A              
     e( 39 - 39) =     -7.67071  eV     1   --> A              
     e( 40 - 40) =     -7.66982  eV     1   --> A              
     e( 41 - 41) =     -7.21470  eV     1   --> A              
     e( 42 - 42) =     -6.98740  eV     1   --> A              
     e( 43 - 43) =     -6.98679  eV     1   --> A              
     e( 44 - 44) =     -6.79505  eV     1   --> A              
     e( 45 - 45) =     -6.63756  eV     1   --> A              
     e( 46 - 46) =     -5.99210  eV     1   --> A              
     e( 47 - 47) =     -5.77286  eV     1   --> A              
     e( 48 - 48) =     -5.56730  eV     1   --> A              
     e( 49 - 49) =     -5.56234  eV     1   --> A              
     e( 50 - 50) =     -5.29208  eV     1   --> A              
     e( 51 - 51) =     -5.28402  eV     1   --> A              
     e( 52 - 52) =     -5.12554  eV     1   --> A              
     e( 53 - 53) =     -5.12070  eV     1   --> A              
     e( 54 - 54) =     -5.01137  eV     1   --> A              
     e( 55 - 55) =     -5.00949  eV     1   --> A              
     e( 56 - 56) =     -4.95887  eV     1   --> A              
     e( 57 - 57) =     -4.87827  eV     1   --> A              
     e( 58 - 58) =     -4.84239  eV     1   --> A              
     e( 59 - 59) =     -4.84189  eV     1   --> A              
     e( 60 - 60) =     -4.82286  eV     1   --> A              
     e( 61 - 61) =     -4.82239  eV     1   --> A              
     e( 62 - 62) =     -4.50920  eV     1   --> A              
     e( 63 - 63) =     -4.35650  eV     1   --> A              
     e( 64 - 64) =     -4.34599  eV     1   --> A              
     e( 65 - 65) =     -4.17907  eV     1   --> A              
     e( 66 - 66) =     -4.00912  eV     1   --> A              
     e( 67 - 67) =     -4.00179  eV     1   --> A              
     e( 68 - 68) =     -3.97264  eV     1   --> A              
     e( 69 - 69) =     -3.97041  eV     1   --> A              
     e( 70 - 70) =     -3.86684  eV     1   --> A              
     e( 71 - 71) =     -3.86462  eV     1   --> A              
     e( 72 - 72) =     -3.83629  eV     1   --> A              
     e( 73 - 73) =     -3.83498  eV     1   --> A              
     e( 74 - 74) =     -3.70861  eV     1   --> A              
     e( 75 - 75) =     -3.49958  eV     1   --> A              
     e( 76 - 76) =     -3.49826  eV     1   --> A              
     e( 77 - 77) =     -3.37761  eV     1   --> A              
     e( 78 - 78) =     -3.22888  eV     1   --> A              
     e( 79 - 79) =     -3.22816  eV     1   --> A              
     e( 80 - 80) =     -3.21887  eV     1   --> A              
     e( 81 - 81) =     -3.20685  eV     1   --> A              
     e( 82 - 82) =     -3.10710  eV     1   --> A              
     e( 83 - 83) =     -3.04371  eV     1   --> A              
     e( 84 - 84) =     -3.04307  eV     1   --> A              
     e( 85 - 85) =     -2.97362  eV     1   --> A              
     e( 86 - 86) =     -2.82539  eV     1   --> A              
     e( 87 - 87) =     -2.68692  eV     1   --> A              
     e( 88 - 88) =     -2.68389  eV     1   --> A              
     e( 89 - 89) =     -2.67592  eV     1   --> A              
     e( 90 - 90) =     -2.27556  eV     1   --> A              
     e( 91 - 91) =     -2.26511  eV     1   --> A              
     e( 92 - 92) =     -2.09058  eV     1   --> A              
     e( 93 - 93) =     -2.08977  eV     1   --> A              
     e( 94 - 94) =     -2.08806  eV     1   --> A              
     e( 95 - 95) =     -2.08731  eV     1   --> A              
     e( 96 - 96) =     -2.07567  eV     1   --> A              
     e( 97 - 97) =     -1.88957  eV     1   --> A              
     e( 98 - 98) =     -1.88846  eV     1   --> A              
     e( 99 - 99) =     -1.87592  eV     1   --> A              
     e(100 -100) =     -1.69162  eV     1   --> A              
     e(101 -101) =     -0.31887  eV     1   --> A              
     e(102 -102) =     -0.24667  eV     1   --> A              
     e(103 -103) =     -0.23909  eV     1   --> A              
     e(104 -104) =      0.06600  eV     1   --> A              
     e(105 -105) =      0.08144  eV     1   --> A              
     e(106 -106) =      0.63338  eV     1   --> A              
     e(107 -107) =      0.78204  eV     1   --> A              
     e(108 -108) =      0.88335  eV     1   --> A              
     e(109 -109) =      0.88366  eV     1   --> A              
     e(110 -110) =      1.05399  eV     1   --> A              
     e(111 -111) =      1.09204  eV     1   --> A              
     e(112 -112) =      1.15142  eV     1   --> A              
     e(113 -113) =      1.20439  eV     1   --> A              
     e(114 -114) =      1.25447  eV     1   --> A              
     e(115 -115) =      1.26528  eV     1   --> A              
     e(116 -116) =      1.26892  eV     1   --> A              
     e(117 -117) =      1.63476  eV     1   --> A              
     e(118 -118) =      1.66042  eV     1   --> A              
     e(119 -119) =      1.84213  eV     1   --> A              
     e(120 -120) =      1.88398  eV     1   --> A              

 **************************************************************************

 **************************************************************************

                    xk=(   0.13333,   0.57735,   0.00000  )

     Band symmetry, C_1 (1)     point group:

     e(  1 -  1) =    -15.30090  eV     1   --> A              
     e(  2 -  2) =    -15.29039  eV     1   --> A              
     e(  3 -  3) =    -14.98545  eV     1   --> A              
     e(  4 -  4) =    -14.58085  eV     1   --> A              
     e(  5 -  5) =    -13.99871  eV     1   --> A              
     e(  6 -  6) =    -13.99709  eV     1   --> A              
     e(  7 -  7) =    -13.63367  eV     1   --> A              
     e(  8 -  8) =    -13.63201  eV     1   --> A              
     e(  9 -  9) =    -13.38584  eV     1   --> A              
     e( 10 - 10) =    -13.37890  eV     1   --> A              
     e( 11 - 11) =    -12.92382  eV     1   --> A              
     e( 12 - 12) =    -12.91355  eV     1   --> A              
     e( 13 - 13) =    -12.48400  eV     1   --> A              
     e( 14 - 14) =    -12.47409  eV     1   --> A              
     e( 15 - 15) =    -12.18253  eV     1   --> A              
     e( 16 - 16) =    -12.01266  eV     1   --> A              
     e( 17 - 17) =    -11.84696  eV     1   --> A              
     e( 18 - 18) =    -11.84418  eV     1   --> A              
     e( 19 - 19) =    -11.49974  eV     1   --> A              
     e( 20 - 20) =    -11.05285  eV     1   --> A              
     e( 21 - 21) =    -10.43054  eV     1   --> A              
     e( 22 - 22) =    -10.42954  eV     1   --> A              
     e( 23 - 23) =    -10.17193  eV     1   --> A              
     e( 24 - 24) =    -10.13947  eV     1   --> A              
     e( 25 - 25) =    -10.13789  eV     1   --> A              
     e( 26 - 26) =     -9.27447  eV     1   --> A              
     e( 27 - 27) =     -9.26861  eV     1   --> A              
     e( 28 - 28) =     -9.15514  eV     1   --> A              
     e( 29 - 29) =     -8.95829  eV     1   --> A              
     e( 30 - 30) =     -8.84393  eV     1   --> A              
     e( 31 - 31) =     -8.83820  eV     1   --> A              
     e( 32 - 32) =     -8.38413  eV     1   --> A              
     e( 33 - 33) =     -8.37459  eV     1   --> A              
     e( 34 - 34) =     -8.36720  eV     1   --> A              
     e( 35 - 35) =     -8.30752  eV     1   --> A              
     e( 36 - 36) =     -8.30710  eV     1   --> A              
     e( 37 - 37) =     -7.85135  eV     1   --> A              
     e( 38 - 38) =     -7.85062  eV     1   --> A              
     e( 39 - 39) =     -7.72254  eV     1   --> A              
     e( 40 - 40) =     -7.72164  eV     1   --> A              
     e( 41 - 41) =     -7.24277  eV     1   --> A              
     e( 42 - 42) =     -6.94352  eV     1   --> A              
     e( 43 - 43) =     -6.94294  eV     1   --> A              
     e( 44 - 44) =     -6.85131  eV     1   --> A              
     e( 45 - 45) =     -6.58769  eV     1   --> A              
     e( 46 - 46) =     -5.93513  eV     1   --> A              
     e( 47 - 47) =     -5.83058  eV     1   --> A              
     e( 48 - 48) =     -5.59801  eV     1   --> A              
     e( 49 - 49) =     -5.59307  eV     1   --> A              
     e( 50 - 50) =     -5.29064  eV     1   --> A              
     e( 51 - 51) =     -5.28269  eV     1   --> A              
     e( 52 - 52) =     -5.09368  eV     1   --> A              
     e( 53 - 53) =     -5.08883  eV     1   --> A              
     e( 54 - 54) =     -5.01794  eV     1   --> A              
     e( 55 - 55) =     -5.01595  eV     1   --> A              
     e( 56 - 56) =     -4.90356  eV     1   --> A              
     e( 57 - 57) =     -4.89901  eV     1   --> A              
     e( 58 - 58) =     -4.83673  eV     1   --> A              
     e( 59 - 59) =     -4.83622  eV     1   --> A              
     e( 60 - 60) =     -4.81702  eV     1   --> A              
     e( 61 - 61) =     -4.81654  eV     1   --> A              
     e( 62 - 62) =     -4.47960  eV     1   --> A              
     e( 63 - 63) =     -4.37265  eV     1   --> A              
     e( 64 - 64) =     -4.36215  eV     1   --> A              
     e( 65 - 65) =     -4.21568  eV     1   --> A              
     e( 66 - 66) =     -4.01765  eV     1   --> A              
     e( 67 - 67) =     -4.01046  eV     1   --> A              
     e( 68 - 68) =     -3.97262  eV     1   --> A              
     e( 69 - 69) =     -3.97038  eV     1   --> A              
     e( 70 - 70) =     -3.85720  eV     1   --> A              
     e( 71 - 71) =     -3.85589  eV     1   --> A              
     e( 72 - 72) =     -3.85242  eV     1   --> A              
     e( 73 - 73) =     -3.85021  eV     1   --> A              
     e( 74 - 74) =     -3.67883  eV     1   --> A              
     e( 75 - 75) =     -3.47281  eV     1   --> A              
     e( 76 - 76) =     -3.47150  eV     1   --> A              
     e( 77 - 77) =     -3.41622  eV     1   --> A              
     e( 78 - 78) =     -3.23657  eV     1   --> A              
     e( 79 - 79) =     -3.22744  eV     1   --> A              
     e( 80 - 80) =     -3.22679  eV     1   --> A              
     e( 81 - 81) =     -3.20543  eV     1   --> A              
     e( 82 - 82) =     -3.13440  eV     1   --> A              
     e( 83 - 83) =     -3.04460  eV     1   --> A              
     e( 84 - 84) =     -3.04395  eV     1   --> A              
     e( 85 - 85) =     -2.98811  eV     1   --> A              
     e( 86 - 86) =     -2.78679  eV     1   --> A              
     e( 87 - 87) =     -2.72131  eV     1   --> A              
     e( 88 - 88) =     -2.70954  eV     1   --> A              
     e( 89 - 89) =     -2.65826  eV     1   --> A              
     e( 90 - 90) =     -2.25395  eV     1   --> A              
     e( 91 - 91) =     -2.24368  eV     1   --> A              
     e( 92 - 92) =     -2.10594  eV     1   --> A              
     e( 93 - 93) =     -2.10499  eV     1   --> A              
     e( 94 - 94) =     -2.10338  eV     1   --> A              
     e( 95 - 95) =     -2.10257  eV     1   --> A              
     e( 96 - 96) =     -2.06249  eV     1   --> A              
     e( 97 - 97) =     -1.89012  eV     1   --> A              
     e( 98 - 98) =     -1.88005  eV     1   --> A              
     e( 99 - 99) =     -1.87888  eV     1   --> A              
     e(100 -100) =     -1.67990  eV     1   --> A              
     e(101 -101) =     -0.32029  eV     1   --> A              
     e(102 -102) =     -0.26418  eV     1   --> A              
     e(103 -103) =     -0.25700  eV     1   --> A              
     e(104 -104) =      0.08942  eV     1   --> A              
     e(105 -105) =      0.10568  eV     1   --> A              
     e(106 -106) =      0.66679  eV     1   --> A              
     e(107 -107) =      0.75089  eV     1   --> A              
     e(108 -108) =      0.91175  eV     1   --> A              
     e(109 -109) =      0.91204  eV     1   --> A              
     e(110 -110) =      1.05003  eV     1   --> A              
     e(111 -111) =      1.09269  eV     1   --> A              
     e(112 -112) =      1.16980  eV     1   --> A              
     e(113 -113) =      1.18383  eV     1   --> A              
     e(114 -114) =      1.23385  eV     1   --> A              
     e(115 -115) =      1.26666  eV     1   --> A              
     e(116 -116) =      1.27034  eV     1   --> A              
     e(117 -117) =      1.67117  eV     1   --> A              
     e(118 -118) =      1.69345  eV     1   --> A              
     e(119 -119) =      1.80409  eV     1   --> A              
     e(120 -120) =      1.84253  eV     1   --> A              

 **************************************************************************

 **************************************************************************

                    xk=(   0.15000,   0.57735,   0.00000  )

     Band symmetry, C_1 (1)     point group:

     e(  1 -  1) =    -15.29726  eV     1   --> A              
     e(  2 -  2) =    -15.28673  eV     1   --> A              
     e(  3 -  3) =    -15.00749  eV     1   --> A              
     e(  4 -  4) =    -14.55255  eV     1   --> A              
     e(  5 -  5) =    -14.01886  eV     1   --> A              
     e(  6 -  6) =    -14.01725  eV     1   --> A              
     e(  7 -  7) =    -13.60873  eV     1   --> A              
     e(  8 -  8) =    -13.60706  eV     1   --> A              
     e(  9 -  9) =    -13.38264  eV     1   --> A              
     e( 10 - 10) =    -13.37570  eV     1   --> A              
     e( 11 - 11) =    -12.95616  eV     1   --> A              
     e( 12 - 12) =    -12.94588  eV     1   --> A              
     e( 13 - 13) =    -12.46388  eV     1   --> A              
     e( 14 - 14) =    -12.45398  eV     1   --> A              
     e( 15 - 15) =    -12.19423  eV     1   --> A              
     e( 16 - 16) =    -12.00452  eV     1   --> A              
     e( 17 - 17) =    -11.84283  eV     1   --> A              
     e( 18 - 18) =    -11.84005  eV     1   --> A              
     e( 19 - 19) =    -11.52419  eV     1   --> A              
     e( 20 - 20) =    -11.02169  eV     1   --> A              
     e( 21 - 21) =    -10.45039  eV     1   --> A              
     e( 22 - 22) =    -10.44941  eV     1   --> A              
     e( 23 - 23) =    -10.16721  eV     1   --> A              
     e( 24 - 24) =    -10.12656  eV     1   --> A              
     e( 25 - 25) =    -10.12488  eV     1   --> A              
     e( 26 - 26) =     -9.28882  eV     1   --> A              
     e( 27 - 27) =     -9.28296  eV     1   --> A              
     e( 28 - 28) =     -9.16950  eV     1   --> A              
     e( 29 - 29) =     -8.95025  eV     1   --> A              
     e( 30 - 30) =     -8.80656  eV     1   --> A              
     e( 31 - 31) =     -8.80082  eV     1   --> A              
     e( 32 - 32) =     -8.38501  eV     1   --> A              
     e( 33 - 33) =     -8.37308  eV     1   --> A              
     e( 34 - 34) =     -8.36645  eV     1   --> A              
     e( 35 - 35) =     -8.32863  eV     1   --> A              
     e( 36 - 36) =     -8.32816  eV     1   --> A              
     e( 37 - 37) =     -7.82033  eV     1   --> A              
     e( 38 - 38) =     -7.81957  eV     1   --> A              
     e( 39 - 39) =     -7.77495  eV     1   --> A              
     e( 40 - 40) =     -7.77404  eV     1   --> A              
     e( 41 - 41) =     -7.26971  eV     1   --> A              
     e( 42 - 42) =     -6.90740  eV     1   --> A              
     e( 43 - 43) =     -6.90051  eV     1   --> A              
     e( 44 - 44) =     -6.89996  eV     1   --> A              
     e( 45 - 45) =     -6.53708  eV     1   --> A              
     e( 46 - 46) =     -5.88932  eV     1   --> A              
     e( 47 - 47) =     -5.87845  eV     1   --> A              
     e( 48 - 48) =     -5.62934  eV     1   --> A              
     e( 49 - 49) =     -5.62440  eV     1   --> A              
     e( 50 - 50) =     -5.28920  eV     1   --> A              
     e( 51 - 51) =     -5.28140  eV     1   --> A              
     e( 52 - 52) =     -5.06218  eV     1   --> A              
     e( 53 - 53) =     -5.05732  eV     1   --> A              
     e( 54 - 54) =     -5.02527  eV     1   --> A              
     e( 55 - 55) =     -5.02313  eV     1   --> A              
     e( 56 - 56) =     -4.92374  eV     1   --> A              
     e( 57 - 57) =     -4.84508  eV     1   --> A              
     e( 58 - 58) =     -4.83035  eV     1   --> A              
     e( 59 - 59) =     -4.82885  eV     1   --> A              
     e( 60 - 60) =     -4.81091  eV     1   --> A              
     e( 61 - 61) =     -4.81041  eV     1   --> A              
     e( 62 - 62) =     -4.44972  eV     1   --> A              
     e( 63 - 63) =     -4.39095  eV     1   --> A              
     e( 64 - 64) =     -4.38045  eV     1   --> A              
     e( 65 - 65) =     -4.25281  eV     1   --> A              
     e( 66 - 66) =     -4.02755  eV     1   --> A              
     e( 67 - 67) =     -4.02053  eV     1   --> A              
     e( 68 - 68) =     -3.97174  eV     1   --> A              
     e( 69 - 69) =     -3.96953  eV     1   --> A              
     e( 70 - 70) =     -3.87734  eV     1   --> A              
     e( 71 - 71) =     -3.87601  eV     1   --> A              
     e( 72 - 72) =     -3.83726  eV     1   --> A              
     e( 73 - 73) =     -3.83505  eV     1   --> A              
     e( 74 - 74) =     -3.64957  eV     1   --> A              
     e( 75 - 75) =     -3.45480  eV     1   --> A              
     e( 76 - 76) =     -3.44667  eV     1   --> A              
     e( 77 - 77) =     -3.44530  eV     1   --> A              
     e( 78 - 78) =     -3.24561  eV     1   --> A              
     e( 79 - 79) =     -3.23666  eV     1   --> A              
     e( 80 - 80) =     -3.22606  eV     1   --> A              
     e( 81 - 81) =     -3.20564  eV     1   --> A              
     e( 82 - 82) =     -3.16047  eV     1   --> A              
     e( 83 - 83) =     -3.04562  eV     1   --> A              
     e( 84 - 84) =     -3.04494  eV     1   --> A              
     e( 85 - 85) =     -3.00156  eV     1   --> A              
     e( 86 - 86) =     -2.75720  eV     1   --> A              
     e( 87 - 87) =     -2.75536  eV     1   --> A              
     e( 88 - 88) =     -2.73452  eV     1   --> A              
     e( 89 - 89) =     -2.63209  eV     1   --> A              
     e( 90 - 90) =     -2.23459  eV     1   --> A              
     e( 91 - 91) =     -2.22478  eV     1   --> A              
[...]
     e( 63 - 63) =     -4.33153  eV     1   --> A''            
     e( 64 - 64) =     -4.25826  eV     1   --> A''            
     e( 65 - 65) =     -4.17051  eV     1   --> A'             
     e( 66 - 66) =     -4.06885  eV     1   --> A''            
     e( 67 - 67) =     -4.06873  eV     1   --> A'             
     e( 68 - 68) =     -3.92553  eV     1   --> A'             
     e( 69 - 69) =     -3.92534  eV     1   --> A''            
     e( 70 - 70) =     -3.81860  eV     1   --> A''            
     e( 71 - 71) =     -3.81850  eV     1   --> A'             
     e( 72 - 72) =     -3.79557  eV     1   --> A'             
     e( 73 - 73) =     -3.76054  eV     1   --> A'             
     e( 74 - 74) =     -3.76044  eV     1   --> A''            
     e( 75 - 75) =     -3.57540  eV     1   --> A'             
     e( 76 - 76) =     -3.57522  eV     1   --> A''            
     e( 77 - 77) =     -3.35744  eV     1   --> A'             
     e( 78 - 78) =     -3.25507  eV     1   --> A''            
     e( 79 - 79) =     -3.14729  eV     1   --> A''            
     e( 80 - 80) =     -3.09900  eV     1   --> A'             
     e( 81 - 81) =     -3.09678  eV     1   --> A''            
     e( 82 - 82) =     -3.09634  eV     1   --> A'             
     e( 83 - 83) =     -3.08319  eV     1   --> A'             
     e( 84 - 84) =     -2.99977  eV     1   --> A''            
     e( 85 - 85) =     -2.96761  eV     1   --> A'             
     e( 86 - 86) =     -2.84298  eV     1   --> A''            
     e( 87 - 87) =     -2.84245  eV     1   --> A'             
     e( 88 - 88) =     -2.47714  eV     1   --> A'             
     e( 89 - 89) =     -2.47312  eV     1   --> A''            
     e( 90 - 90) =     -2.44071  eV     1   --> A''            
     e( 91 - 91) =     -2.43947  eV     1   --> A'             
     e( 92 - 92) =     -2.13666  eV     1   --> A'             
     e( 93 - 93) =     -2.11170  eV     1   --> A''            
     e( 94 - 94) =     -2.06813  eV     1   --> A''            
     e( 95 - 95) =     -2.06753  eV     1   --> A'             
     e( 96 - 96) =     -1.95696  eV     1   --> A''            
     e( 97 - 97) =     -1.88910  eV     1   --> A''            
     e( 98 - 98) =     -1.88846  eV     1   --> A'             
     e( 99 - 99) =     -1.78825  eV     1   --> A'             
     e(100 -100) =     -1.78810  eV     1   --> A''            
     e(101 -101) =     -0.30477  eV     1   --> A'             
     e(102 -102) =     -0.17254  eV     1   --> A''            
     e(103 -103) =     -0.17218  eV     1   --> A'             
     e(104 -104) =     -0.02025  eV     1   --> A''            
     e(105 -105) =     -0.01978  eV     1   --> A'             
     e(106 -106) =      0.52699  eV     1   --> A'             
     e(107 -107) =      0.73145  eV     1   --> A'             
     e(108 -108) =      0.79985  eV     1   --> A'             
     e(109 -109) =      0.97646  eV     1   --> A''            
     e(110 -110) =      0.97773  eV     1   --> A'             
     e(111 -111) =      1.08877  eV     1   --> A''            
     e(112 -112) =      1.09087  eV     1   --> A'             
     e(113 -113) =      1.23969  eV     1   --> A'             
     e(114 -114) =      1.28052  eV     1   --> A'             
     e(115 -115) =      1.34450  eV     1   --> A'             
     e(116 -116) =      1.34751  eV     1   --> A''            
     e(117 -117) =      1.47900  eV     1   --> A''            
     e(118 -118) =      1.48148  eV     1   --> A'             
     e(119 -120) =      1.95262  eV     2   --> A'             
     e(119 -120) =      1.95262  eV     2   --> A''            

 **************************************************************************

 **************************************************************************

                    xk=(   0.00000,   0.54848,   0.00000  )

     Band symmetry, C_s (m)     point group:

     e(  1 -  1) =    -15.33561  eV     1   --> A'             
     e(  2 -  2) =    -15.28228  eV     1   --> A'             
     e(  3 -  4) =    -14.79462  eV     2   --> A'             
     e(  3 -  4) =    -14.79462  eV     2   --> A''            
     e(  5 -  5) =    -13.87048  eV     1   --> A'             
     e(  6 -  6) =    -13.87021  eV     1   --> A''            
     e(  7 -  7) =    -13.77783  eV     1   --> A'             
     e(  8 -  8) =    -13.77757  eV     1   --> A''            
     e(  9 -  9) =    -13.45620  eV     1   --> A'             
     e( 10 - 10) =    -13.33309  eV     1   --> A'             
     e( 11 - 11) =    -12.69009  eV     1   --> A'             
     e( 12 - 12) =    -12.68426  eV     1   --> A''            
     e( 13 - 13) =    -12.66641  eV     1   --> A''            
     e( 14 - 14) =    -12.66413  eV     1   --> A'             
     e( 15 - 16) =    -12.09351  eV     2   --> A'             
     e( 15 - 16) =    -12.09351  eV     2   --> A''            
     e( 17 - 17) =    -11.88973  eV     1   --> A'             
     e( 18 - 18) =    -11.83126  eV     1   --> A'             
     e( 19 - 19) =    -11.28881  eV     1   --> A''            
     e( 20 - 20) =    -11.28792  eV     1   --> A'             
     e( 21 - 21) =    -10.32021  eV     1   --> A''            
     e( 22 - 22) =    -10.31940  eV     1   --> A'             
     e( 23 - 23) =    -10.22516  eV     1   --> A''            
     e( 24 - 24) =    -10.22446  eV     1   --> A'             
     e( 25 - 25) =    -10.19317  eV     1   --> A'             
     e( 26 - 26) =     -9.14468  eV     1   --> A''            
     e( 27 - 27) =     -9.14361  eV     1   --> A'             
     e( 28 - 28) =     -9.05402  eV     1   --> A''            
     e( 29 - 29) =     -9.05368  eV     1   --> A'             
     e( 30 - 30) =     -9.04220  eV     1   --> A'             
     e( 31 - 31) =     -9.04190  eV     1   --> A''            
     e( 32 - 32) =     -8.48091  eV     1   --> A'             
     e( 33 - 33) =     -8.36356  eV     1   --> A'             
     e( 34 - 34) =     -8.28116  eV     1   --> A'             
     e( 35 - 35) =     -8.15160  eV     1   --> A''            
     e( 36 - 36) =     -8.15110  eV     1   --> A'             
     e( 37 - 37) =     -8.04293  eV     1   --> A''            
     e( 38 - 38) =     -8.04247  eV     1   --> A'             
     e( 39 - 40) =     -7.37020  eV     2   --> A'             
     e( 39 - 40) =     -7.37020  eV     2   --> A''            
     e( 41 - 42) =     -7.26118  eV     2   --> A'             
     e( 41 - 42) =     -7.26118  eV     2   --> A''            
     e( 43 - 44) =     -6.95895  eV     2   --> A'             
     e( 43 - 44) =     -6.95895  eV     2   --> A''            
     e( 45 - 45) =     -6.39750  eV     1   --> A''            
     e( 46 - 46) =     -6.39735  eV     1   --> A'             
     e( 47 - 47) =     -5.41736  eV     1   --> A'             
     e( 48 - 48) =     -5.41640  eV     1   --> A''            
     e( 49 - 50) =     -5.36872  eV     2   --> A'             
     e( 49 - 50) =     -5.36872  eV     2   --> A''            
     e( 51 - 51) =     -5.31177  eV     1   --> A'             
     e( 52 - 52) =     -5.28445  eV     1   --> A'             
     e( 53 - 53) =     -5.27679  eV     1   --> A'             
     e( 54 - 54) =     -5.27633  eV     1   --> A''            
     e( 55 - 55) =     -5.04780  eV     1   --> A'             
     e( 56 - 56) =     -4.92788  eV     1   --> A'             
     e( 57 - 57) =     -4.92777  eV     1   --> A''            
     e( 58 - 58) =     -4.92565  eV     1   --> A'             
     e( 59 - 60) =     -4.77188  eV     2   --> A'             
     e( 59 - 60) =     -4.77188  eV     2   --> A''            
     e( 61 - 62) =     -4.70278  eV     2   --> A'             
     e( 61 - 62) =     -4.70278  eV     2   --> A''            
     e( 63 - 63) =     -4.31521  eV     1   --> A''            
     e( 64 - 64) =     -4.27754  eV     1   --> A''            
     e( 65 - 65) =     -4.07192  eV     1   --> A'             
     e( 66 - 66) =     -4.00672  eV     1   --> A''            
     e( 67 - 67) =     -4.00658  eV     1   --> A'             
     e( 68 - 68) =     -3.92954  eV     1   --> A'             
     e( 69 - 69) =     -3.92887  eV     1   --> A''            
     e( 70 - 70) =     -3.88470  eV     1   --> A'             
     e( 71 - 71) =     -3.87775  eV     1   --> A''            
     e( 72 - 72) =     -3.87758  eV     1   --> A'             
     e( 73 - 73) =     -3.72170  eV     1   --> A'             
     e( 74 - 74) =     -3.72152  eV     1   --> A''            
     e( 75 - 75) =     -3.62564  eV     1   --> A'             
     e( 76 - 76) =     -3.62546  eV     1   --> A''            
     e( 77 - 77) =     -3.29391  eV     1   --> A'             
     e( 78 - 78) =     -3.22791  eV     1   --> A''            
     e( 79 - 79) =     -3.17587  eV     1   --> A''            
     e( 80 - 80) =     -3.16261  eV     1   --> A'             
     e( 81 - 81) =     -3.10129  eV     1   --> A''            
     e( 82 - 82) =     -3.10085  eV     1   --> A'             
     e( 83 - 83) =     -3.06581  eV     1   --> A'             
     e( 84 - 84) =     -3.00790  eV     1   --> A'             
     e( 85 - 85) =     -3.00187  eV     1   --> A''            
     e( 86 - 86) =     -2.84598  eV     1   --> A''            
     e( 87 - 87) =     -2.84545  eV     1   --> A'             
     e( 88 - 88) =     -2.47037  eV     1   --> A'             
     e( 89 - 89) =     -2.46448  eV     1   --> A''            
     e( 90 - 90) =     -2.44853  eV     1   --> A''            
     e( 91 - 91) =     -2.44542  eV     1   --> A'             
     e( 92 - 92) =     -2.12950  eV     1   --> A'             
     e( 93 - 93) =     -2.07271  eV     1   --> A''            
     e( 94 - 94) =     -2.02409  eV     1   --> A''            
     e( 95 - 95) =     -2.02345  eV     1   --> A'             
     e( 96 - 96) =     -1.99514  eV     1   --> A''            
     e( 97 - 97) =     -1.93416  eV     1   --> A''            
     e( 98 - 98) =     -1.93355  eV     1   --> A'             
     e( 99 - 99) =     -1.78229  eV     1   --> A'             
     e(100 -100) =     -1.78217  eV     1   --> A''            
     e(101 -101) =     -0.31198  eV     1   --> A'             
     e(102 -102) =     -0.13319  eV     1   --> A''            
     e(103 -103) =     -0.13295  eV     1   --> A'             
     e(104 -104) =     -0.05649  eV     1   --> A''            
     e(105 -105) =     -0.05592  eV     1   --> A'             
     e(106 -106) =      0.52279  eV     1   --> A'             
     e(107 -107) =      0.76281  eV     1   --> A'             
     e(108 -108) =      0.79627  eV     1   --> A'             
     e(109 -109) =      0.98368  eV     1   --> A''            
     e(110 -110) =      0.98496  eV     1   --> A'             
     e(111 -111) =      1.08060  eV     1   --> A''            
     e(112 -112) =      1.08270  eV     1   --> A'             
     e(113 -113) =      1.25119  eV     1   --> A'             
     e(114 -114) =      1.27213  eV     1   --> A'             
     e(115 -115) =      1.37100  eV     1   --> A'             
     e(116 -116) =      1.37605  eV     1   --> A''            
     e(117 -117) =      1.44881  eV     1   --> A''            
     e(118 -118) =      1.45329  eV     1   --> A'             
     e(119 -119) =      2.07421  eV     1   -->   ?
     e(120 -120) =      2.07442  eV     1   -->   ?

 **************************************************************************

 **************************************************************************

                    xk=(   0.00000,   0.57735,   0.00000  )

     Band symmetry, C_s (m)     point group:

     e(  1 -  1) =    -15.31484  eV     1   --> A'             
     e(  2 -  2) =    -15.30437  eV     1   --> A'             
     e(  3 -  4) =    -14.79543  eV     2   --> A'             
     e(  3 -  4) =    -14.79543  eV     2   --> A''            
     e(  5 -  5) =    -13.82550  eV     1   --> A'             
     e(  6 -  6) =    -13.82516  eV     1   --> A''            
     e(  7 -  7) =    -13.82379  eV     1   --> A'             
     e(  8 -  8) =    -13.82359  eV     1   --> A''            
     e(  9 -  9) =    -13.39812  eV     1   --> A'             
     e( 10 - 10) =    -13.39119  eV     1   --> A'             
     e( 11 - 11) =    -12.68672  eV     1   --> A'             
     e( 12 - 12) =    -12.67619  eV     1   --> A''            
     e( 13 - 13) =    -12.67480  eV     1   --> A''            
     e( 14 - 14) =    -12.66781  eV     1   --> A'             
     e( 15 - 16) =    -12.09133  eV     2   --> A'             
     e( 15 - 16) =    -12.09133  eV     2   --> A''            
     e( 17 - 17) =    -11.86266  eV     1   --> A'             
     e( 18 - 18) =    -11.85988  eV     1   --> A'             
     e( 19 - 19) =    -11.28967  eV     1   --> A''            
     e( 20 - 20) =    -11.28878  eV     1   --> A'             
     e( 21 - 21) =    -10.27476  eV     1   --> A''            
     e( 22 - 22) =    -10.27390  eV     1   --> A'             
     e( 23 - 23) =    -10.27158  eV     1   --> A''            
     e( 24 - 24) =    -10.27085  eV     1   --> A'             
     e( 25 - 25) =    -10.18953  eV     1   --> A'             
     e( 26 - 26) =     -9.10673  eV     1   --> A''            
     e( 27 - 27) =     -9.10261  eV     1   --> A'             
     e( 28 - 28) =     -9.09638  eV     1   --> A'             
     e( 29 - 29) =     -9.09369  eV     1   --> A''            
     e( 30 - 30) =     -9.04615  eV     1   --> A'             
     e( 31 - 31) =     -9.04585  eV     1   --> A''            
     e( 32 - 32) =     -8.38693  eV     1   --> A'             
     e( 33 - 33) =     -8.38108  eV     1   --> A'             
     e( 34 - 34) =     -8.36495  eV     1   --> A'             
     e( 35 - 35) =     -8.09847  eV     1   --> A''            
     e( 36 - 36) =     -8.09755  eV     1   --> A'             
     e( 37 - 38) =     -8.09607  eV     2   --> A'             
     e( 37 - 38) =     -8.09607  eV     2   --> A''            
     e( 39 - 40) =     -7.31643  eV     2   --> A'             
     e( 39 - 40) =     -7.31643  eV     2   --> A''            
     e( 41 - 42) =     -7.31565  eV     2   --> A'             
     e( 41 - 42) =     -7.31565  eV     2   --> A''            
     e( 43 - 44) =     -6.96143  eV     2   --> A'             
     e( 43 - 44) =     -6.96143  eV     2   --> A''            
     e( 45 - 45) =     -6.39558  eV     1   --> A''            
     e( 46 - 46) =     -6.39542  eV     1   --> A'             
     e( 47 - 47) =     -5.36728  eV     1   --> A''            
     e( 48 - 48) =     -5.36702  eV     1   --> A'             
     e( 49 - 49) =     -5.35373  eV     1   --> A'             
     e( 50 - 50) =     -5.34807  eV     1   --> A''            
     e( 51 - 51) =     -5.34468  eV     1   --> A''            
     e( 52 - 52) =     -5.34072  eV     1   --> A'             
     e( 53 - 53) =     -5.29842  eV     1   --> A'             
     e( 54 - 54) =     -5.29018  eV     1   --> A'             
     e( 55 - 55) =     -4.98954  eV     1   --> A'             
     e( 56 - 56) =     -4.98789  eV     1   --> A'             
     e( 57 - 58) =     -4.85002  eV     2   --> A'             
     e( 57 - 58) =     -4.85002  eV     2   --> A''            
     e( 59 - 60) =     -4.84955  eV     2   --> A'             
     e( 59 - 60) =     -4.84955  eV     2   --> A''            
     e( 61 - 62) =     -4.70384  eV     2   --> A'             
     e( 61 - 62) =     -4.70384  eV     2   --> A''            
     e( 63 - 63) =     -4.30240  eV     1   --> A''            
     e( 64 - 64) =     -4.29187  eV     1   --> A''            
     e( 65 - 65) =     -3.98355  eV     1   --> A'             
     e( 66 - 66) =     -3.97399  eV     1   --> A'             
     e( 67 - 67) =     -3.94400  eV     1   --> A'             
     e( 68 - 68) =     -3.94378  eV     1   --> A''            
     e( 69 - 69) =     -3.94167  eV     1   --> A''            
     e( 70 - 70) =     -3.94114  eV     1   --> A'             
     e( 71 - 71) =     -3.93295  eV     1   --> A''            
     e( 72 - 72) =     -3.93134  eV     1   --> A'             
     e( 73 - 73) =     -3.67560  eV     1   --> A'             
     e( 74 - 74) =     -3.67523  eV     1   --> A''            
     e( 75 - 76) =     -3.67411  eV     2   --> A'             
     e( 75 - 76) =     -3.67411  eV     2   --> A''            
     e( 77 - 77) =     -3.23961  eV     1   --> A'             
     e( 78 - 78) =     -3.21665  eV     1   --> A'             
     e( 79 - 79) =     -3.20727  eV     1   --> A''            
     e( 80 - 80) =     -3.19747  eV     1   --> A''            
     e( 81 - 81) =     -3.10282  eV     1   --> A''            
     e( 82 - 82) =     -3.10238  eV     1   --> A'             
     e( 83 - 83) =     -3.04082  eV     1   --> A'             
     e( 84 - 84) =     -3.04026  eV     1   --> A'             
     e( 85 - 85) =     -3.00257  eV     1   --> A''            
     e( 86 - 86) =     -2.84701  eV     1   --> A''            
     e( 87 - 87) =     -2.84648  eV     1   --> A'             
     e( 88 - 88) =     -2.46795  eV     1   --> A'             
     e( 89 - 89) =     -2.45782  eV     1   --> A''            
     e( 90 - 90) =     -2.45602  eV     1   --> A''            
     e( 91 - 91) =     -2.44867  eV     1   --> A'             
     e( 92 - 92) =     -2.12708  eV     1   --> A'             
     e( 93 - 93) =     -2.03453  eV     1   --> A''            
     e( 94 - 94) =     -2.03316  eV     1   --> A''            
     e( 95 - 96) =     -1.98005  eV     2   --> A'             
     e( 95 - 96) =     -1.98005  eV     2   --> A''            
     e( 97 - 97) =     -1.97859  eV     1   --> A''            
     e( 98 - 98) =     -1.97744  eV     1   --> A'             
     e( 99 - 99) =     -1.78052  eV     1   --> A'             
     e(100 -100) =     -1.78041  eV     1   --> A''            
     e(101 -101) =     -0.31439  eV     1   --> A'             
     e(102 -102) =     -0.09999  eV     1   --> A'             
     e(103 -103) =     -0.09914  eV     1   --> A''            
     e(104 -104) =     -0.08954  eV     1   --> A''            
     e(105 -105) =     -0.08789  eV     1   --> A'             
     e(106 -106) =      0.52140  eV     1   --> A'             
     e(107 -107) =      0.78395  eV     1   --> A'             
     e(108 -108) =      0.78433  eV     1   --> A'             
     e(109 -109) =      0.98605  eV     1   --> A''            
     e(110 -110) =      0.98734  eV     1   --> A'             
     e(111 -111) =      1.07783  eV     1   --> A''            
     e(112 -112) =      1.07993  eV     1   --> A'             
     e(113 -113) =      1.26035  eV     1   --> A'             
     e(114 -114) =      1.26397  eV     1   --> A'             
     e(115 -115) =      1.38550  eV     1   --> A'             
     e(116 -116) =      1.39422  eV     1   --> A''            
     e(117 -117) =      1.42967  eV     1   --> A''            
     e(118 -118) =      1.43780  eV     1   --> A'             
     e(119 -119) =      2.10774  eV     1   --> A''            
     e(120 -120) =      2.10833  eV     1   --> A'             

 **************************************************************************

     BANDS        : 13m31.02s CPU    16m15.84s WALL


   This run was terminated on:   1:33:19  20Apr2020            

=------------------------------------------------------------------------------=
   JOB DONE.
=------------------------------------------------------------------------------=
