
     Program PWSCF v.6.3 starts on 19Apr2020 at  0:22:45 

     This program is part of the open-source Quantum ESPRESSO suite
     for quantum simulation of materials; please cite
         "P. Giannozzi et al., J. Phys.:Condens. Matter 21 395502 (2009);
         "P. Giannozzi et al., J. Phys.:Condens. Matter 29 465901 (2017);
          URL http://www.quantum-espresso.org", 
     in publications or presentations arising from this work. More details at
     http://www.quantum-espresso.org/quote

     Parallel version (MPI), running on     1 processors

     MPI processes distributed on     1 nodes
     Reading input from /home/nano3/Desktop/RAYID/Ge+SiC/Ge+SiC_I/Ge+SiC_I__4.0.scf.in

     Current dimensions of program PWSCF are:
     Max number of different atomic species (ntypx) = 10
     Max number of k-points (npk) =  40000
     Max angular momentum in pseudopotentials (lmaxx) =  3

     IMPORTANT: XC functional enforced from input :
     Exchange-correlation      = PBE ( 1  4  3  4 0 0)
     Any further DFT definition will be discarded
     Please, verify this is what you really want

               file Ge.pbe-mt_fhi.UPF: wavefunction(s)  4d 4f renormalized
               file C.pbe-mt_fhi.UPF: wavefunction(s)  4f renormalized
               file Si.pbe-mt_fhi.UPF: wavefunction(s)  4f renormalized

     -------------------------------------------------
     Parameters for Dispersion (Grimme-D2) Correction:
     -------------------------------------------------
       atom      VdW radius       C_6     

        Ge         3.264        593.221
        C          2.744         60.710
        Si         3.243        320.200

     Subspace diagonalization in iterative solution of the eigenvalue problem:
     a serial algorithm will be used


     G-vector sticks info
     --------------------
     sticks:   dense  smooth     PW     G-vecs:    dense   smooth      PW
     Sum        4429    4429   1177               388955   388955   53541



     bravais-lattice index     =            4
     lattice parameter (alat)  =      23.1302  a.u.
     unit-cell volume          =   17511.3678 (a.u.)^3
     number of atoms/cell      =           50
     number of atomic types    =            3
     number of electrons       =       200.00
     number of Kohn-Sham states=          120
     kinetic-energy cutoff     =      30.0000  Ry
     charge density cutoff     =     120.0000  Ry
     convergence threshold     =      1.0E-04
     mixing beta               =       0.7000
     number of iterations used =            8  plain     mixing
     Exchange-correlation      = PBE ( 1  4  3  4 0 0)

     celldm(1)=  23.130248  celldm(2)=   0.000000  celldm(3)=   1.633987
     celldm(4)=   0.000000  celldm(5)=   0.000000  celldm(6)=   0.000000

     crystal axes: (cart. coord. in units of alat)
               a(1) = (   1.000000   0.000000   0.000000 )  
               a(2) = (  -0.500000   0.866025   0.000000 )  
               a(3) = (   0.000000   0.000000   1.633987 )  

     reciprocal axes: (cart. coord. in units 2 pi/alat)
               b(1) = (  1.000000  0.577350 -0.000000 )  
               b(2) = (  0.000000  1.154701  0.000000 )  
               b(3) = (  0.000000 -0.000000  0.612000 )  


     PseudoPot. # 1 for Ge read from file:
     /home/nano3/Desktop/RAYID/qe-6.3/bin/pseudo/Ge.pbe-mt_fhi.UPF
     MD5 check sum: b08ff19c3d362044f6e29226b459d86a
     Pseudo is Norm-conserving, Zval =  4.0
     Generated using FHI98PP, converted with fhi2upf.x v.5.0.2
     Using radial grid of  529 points,  3 beta functions with: 
                l(1) =   1
                l(2) =   2
                l(3) =   3

     PseudoPot. # 2 for C  read from file:
     /home/nano3/Desktop/RAYID/qe-6.3/bin/pseudo/C.pbe-mt_fhi.UPF
     MD5 check sum: 058ca341f9d6d5327d9962fd88a91b65
     Pseudo is Norm-conserving, Zval =  4.0
     Generated using FHI98PP, converted with fhi2upf.x v.5.0.2
     Using radial grid of  461 points,  3 beta functions with: 
                l(1) =   0
                l(2) =   1
                l(3) =   3

     PseudoPot. # 3 for Si read from file:
     /home/nano3/Desktop/RAYID/qe-6.3/bin/pseudo/Si.pbe-mt_fhi.UPF
     MD5 check sum: 259057c2adf9952f9ced37ae3d9e311d
     Pseudo is Norm-conserving, Zval =  4.0
     Generated using FHI98PP, converted with fhi2upf.x v.5.0.2
     Using radial grid of  495 points,  3 beta functions with: 
                l(1) =   0
                l(2) =   1
                l(3) =   3

     atomic species   valence    mass     pseudopotential
        Ge             4.00    72.59000     Ge( 1.00)
        C              4.00    12.01070     C ( 1.00)
        Si             4.00    28.08550     Si( 1.00)

      6 Sym. Ops. (no inversion) found


                                    s                        frac. trans.

      isym =  1     identity                                     

 cryst.   s( 1) = (     1          0          0      )
                  (     0          1          0      )
                  (     0          0          1      )

 cart.    s( 1) = (  1.0000000  0.0000000  0.0000000 )
                  (  0.0000000  1.0000000  0.0000000 )
                  (  0.0000000  0.0000000  1.0000000 )


      isym =  2     120 deg rotation - cryst. axis [0,0,1]       

 cryst.   s( 2) = (     0          1          0      )
                  (    -1         -1          0      )
                  (     0          0          1      )

 cart.    s( 2) = ( -0.5000000 -0.8660254  0.0000000 )
                  (  0.8660254 -0.5000000  0.0000000 )
                  (  0.0000000  0.0000000  1.0000000 )


      isym =  3     120 deg rotation - cryst. axis [0,0,-1]      

 cryst.   s( 3) = (    -1         -1          0      )
                  (     1          0          0      )
                  (     0          0          1      )

 cart.    s( 3) = ( -0.5000000  0.8660254  0.0000000 )
                  ( -0.8660254 -0.5000000  0.0000000 )
                  (  0.0000000  0.0000000  1.0000000 )


      isym =  4     inv. 180 deg rotation - cart. axis [1,0,0]   

 cryst.   s( 4) = (    -1          0          0      )
                  (     1          1          0      )
                  (     0          0          1      )

 cart.    s( 4) = ( -1.0000000  0.0000000  0.0000000 )
                  (  0.0000000  1.0000000  0.0000000 )
                  (  0.0000000  0.0000000  1.0000000 )


      isym =  5     inv. 180 deg rotation - cryst. axis [0,1,0]  

 cryst.   s( 5) = (     1          1          0      )
                  (     0         -1          0      )
                  (     0          0          1      )

 cart.    s( 5) = (  0.5000000  0.8660254  0.0000000 )
                  (  0.8660254 -0.5000000  0.0000000 )
                  (  0.0000000  0.0000000  1.0000000 )


      isym =  6     inv. 180 deg rotation - cryst. axis [1,1,0]  

 cryst.   s( 6) = (     0         -1          0      )
                  (    -1          0          0      )
                  (     0          0          1      )

 cart.    s( 6) = (  0.5000000 -0.8660254  0.0000000 )
                  ( -0.8660254 -0.5000000  0.0000000 )
                  (  0.0000000  0.0000000  1.0000000 )


     point group C_3v (3m)  
     there are  3 classes
     the character table:

       E     2C3   3s_v 
A_1    1.00  1.00  1.00
A_2    1.00  1.00 -1.00
E      2.00 -1.00  0.00

     the symmetry operations in each class and the name of the first element:

     E        1
          identity                                               
     2C3      2    3
          120 deg rotation - cryst. axis [0,0,1]                 
     3s_v     4    5    6
          inv. 180 deg rotation - cart. axis [1,0,0]             

   Cartesian axes

     site n.     atom                  positions (alat units)
         1           Ge  tau(   1) = (   0.0000000   0.0000000   0.3267974  )
         2           Ge  tau(   2) = (   0.0000000   0.1924510   0.3816993  )
         3           Ge  tau(   3) = (  -0.1666667   0.2886751   0.3267974  )
         4           Ge  tau(   4) = (  -0.1666667   0.4811261   0.3816993  )
         5           Ge  tau(   5) = (  -0.3333333   0.5773503   0.3267974  )
         6           Ge  tau(   6) = (  -0.3333333   0.7698012   0.3816993  )
         7           Ge  tau(   7) = (   0.3333333   0.0000000   0.3267974  )
         8           Ge  tau(   8) = (   0.3333333   0.1924510   0.3816993  )
         9           Ge  tau(   9) = (   0.1666667   0.2886751   0.3267974  )
        10           Ge  tau(  10) = (   0.1666667   0.4811261   0.3816993  )
        11           Ge  tau(  11) = (   0.0000000   0.5773503   0.3267974  )
        12           Ge  tau(  12) = (   0.0000000   0.7698012   0.3816993  )
        13           Ge  tau(  13) = (   0.6666667   0.0000000   0.3267974  )
        14           Ge  tau(  14) = (   0.6666667   0.1924510   0.3816993  )
        15           Ge  tau(  15) = (   0.5000000   0.2886751   0.3267974  )
        16           Ge  tau(  16) = (   0.5000000   0.4811261   0.3816993  )
        17           Ge  tau(  17) = (   0.3333333   0.5773503   0.3267974  )
        18           Ge  tau(  18) = (   0.3333333   0.7698012   0.3816993  )
        19           Si  tau(  19) = (   0.0000000   0.0000000   0.0000000  )
        20           C   tau(  20) = (   0.0000000   0.1443382   0.0000000  )
        21           Si  tau(  21) = (  -0.1250000   0.2165064   0.0000000  )
        22           C   tau(  22) = (  -0.1250000   0.3608446   0.0000000  )
        23           Si  tau(  23) = (  -0.2500000   0.4330127   0.0000000  )
        24           C   tau(  24) = (  -0.2500000   0.5773509   0.0000000  )
        25           Si  tau(  25) = (  -0.3750000   0.6495191   0.0000000  )
        26           C   tau(  26) = (  -0.3750000   0.7938573   0.0000000  )
        27           Si  tau(  27) = (   0.2500000   0.0000000   0.0000000  )
        28           C   tau(  28) = (   0.2500000   0.1443382   0.0000000  )
        29           Si  tau(  29) = (   0.1250000   0.2165064   0.0000000  )
        30           C   tau(  30) = (   0.1250000   0.3608446   0.0000000  )
        31           Si  tau(  31) = (   0.0000000   0.4330127   0.0000000  )
        32           C   tau(  32) = (   0.0000000   0.5773509   0.0000000  )
        33           Si  tau(  33) = (  -0.1250000   0.6495191   0.0000000  )
        34           C   tau(  34) = (  -0.1250000   0.7938573   0.0000000  )
        35           Si  tau(  35) = (   0.5000000   0.0000000   0.0000000  )
        36           C   tau(  36) = (   0.5000000   0.1443382   0.0000000  )
        37           Si  tau(  37) = (   0.3750000   0.2165064   0.0000000  )
        38           C   tau(  38) = (   0.3750000   0.3608446   0.0000000  )
        39           Si  tau(  39) = (   0.2500000   0.4330127   0.0000000  )
        40           C   tau(  40) = (   0.2500000   0.5773509   0.0000000  )
        41           Si  tau(  41) = (   0.1250000   0.6495191   0.0000000  )
        42           C   tau(  42) = (   0.1250000   0.7938573   0.0000000  )
        43           Si  tau(  43) = (   0.7500000   0.0000000   0.0000000  )
        44           C   tau(  44) = (   0.7500000   0.1443382   0.0000000  )
        45           Si  tau(  45) = (   0.6250000   0.2165064   0.0000000  )
        46           C   tau(  46) = (   0.6250000   0.3608446   0.0000000  )
        47           Si  tau(  47) = (   0.5000000   0.4330127   0.0000000  )
        48           C   tau(  48) = (   0.5000000   0.5773509   0.0000000  )
        49           Si  tau(  49) = (   0.3750000   0.6495191   0.0000000  )
        50           C   tau(  50) = (   0.3750000   0.7938573   0.0000000  )

   Crystallographic axes

     site n.     atom                  positions (cryst. coord.)
         1           Ge  tau(   1) = (  0.0000000  0.0000000  0.2000000  )
         2           Ge  tau(   2) = (  0.1111116  0.2222233  0.2336000  )
         3           Ge  tau(   3) = ( -0.0000000  0.3333333  0.2000000  )
         4           Ge  tau(   4) = (  0.1111116  0.5555566  0.2336000  )
         5           Ge  tau(   5) = ( -0.0000000  0.6666667  0.2000000  )
         6           Ge  tau(   6) = (  0.1111116  0.8888899  0.2336000  )
         7           Ge  tau(   7) = (  0.3333333  0.0000000  0.2000000  )
         8           Ge  tau(   8) = (  0.4444450  0.2222233  0.2336000  )
         9           Ge  tau(   9) = (  0.3333333  0.3333333  0.2000000  )
        10           Ge  tau(  10) = (  0.4444450  0.5555566  0.2336000  )
        11           Ge  tau(  11) = (  0.3333333  0.6666667  0.2000000  )
        12           Ge  tau(  12) = (  0.4444450  0.8888899  0.2336000  )
        13           Ge  tau(  13) = (  0.6666667  0.0000000  0.2000000  )
        14           Ge  tau(  14) = (  0.7777783  0.2222233  0.2336000  )
        15           Ge  tau(  15) = (  0.6666667  0.3333333  0.2000000  )
        16           Ge  tau(  16) = (  0.7777783  0.5555566  0.2336000  )
        17           Ge  tau(  17) = (  0.6666667  0.6666667  0.2000000  )
        18           Ge  tau(  18) = (  0.7777783  0.8888899  0.2336000  )
        19           Si  tau(  19) = (  0.0000000  0.0000000  0.0000000  )
        20           C   tau(  20) = (  0.0833337  0.1666674  0.0000000  )
        21           Si  tau(  21) = (  0.0000000  0.2500000  0.0000000  )
        22           C   tau(  22) = (  0.0833337  0.4166674  0.0000000  )
        23           Si  tau(  23) = (  0.0000000  0.5000000  0.0000000  )
        24           C   tau(  24) = (  0.0833337  0.6666674  0.0000000  )
        25           Si  tau(  25) = (  0.0000000  0.7500000  0.0000000  )
        26           C   tau(  26) = (  0.0833337  0.9166674  0.0000000  )
        27           Si  tau(  27) = (  0.2500000  0.0000000  0.0000000  )
        28           C   tau(  28) = (  0.3333337  0.1666674  0.0000000  )
        29           Si  tau(  29) = (  0.2500000  0.2500000  0.0000000  )
        30           C   tau(  30) = (  0.3333337  0.4166674  0.0000000  )
        31           Si  tau(  31) = (  0.2500000  0.5000000  0.0000000  )
        32           C   tau(  32) = (  0.3333337  0.6666674  0.0000000  )
        33           Si  tau(  33) = (  0.2500000  0.7500000  0.0000000  )
        34           C   tau(  34) = (  0.3333337  0.9166674  0.0000000  )
        35           Si  tau(  35) = (  0.5000000  0.0000000  0.0000000  )
        36           C   tau(  36) = (  0.5833337  0.1666674  0.0000000  )
        37           Si  tau(  37) = (  0.5000000  0.2500000  0.0000000  )
        38           C   tau(  38) = (  0.5833337  0.4166674  0.0000000  )
        39           Si  tau(  39) = (  0.5000000  0.5000000  0.0000000  )
        40           C   tau(  40) = (  0.5833337  0.6666674  0.0000000  )
        41           Si  tau(  41) = (  0.5000000  0.7500000  0.0000000  )
        42           C   tau(  42) = (  0.5833337  0.9166674  0.0000000  )
        43           Si  tau(  43) = (  0.7500000  0.0000000  0.0000000  )
        44           C   tau(  44) = (  0.8333337  0.1666674  0.0000000  )
        45           Si  tau(  45) = (  0.7500000  0.2500000  0.0000000  )
        46           C   tau(  46) = (  0.8333337  0.4166674  0.0000000  )
        47           Si  tau(  47) = (  0.7500000  0.5000000  0.0000000  )
        48           C   tau(  48) = (  0.8333337  0.6666674  0.0000000  )
        49           Si  tau(  49) = (  0.7500000  0.7500000  0.0000000  )
        50           C   tau(  50) = (  0.8333337  0.9166674  0.0000000  )

     number of k points=     3  Methfessel-Paxton smearing, width (Ry)=  0.0060
                       cart. coord. in units 2pi/alat
        k(    1) = (   0.0000000   0.0000000   0.0000000), wk =   0.2222222
        k(    2) = (   0.0000000   0.3849002   0.0000000), wk =   1.3333333
        k(    3) = (   0.3333333   0.5773503   0.0000000), wk =   0.4444444

                       cryst. coord.
        k(    1) = (   0.0000000   0.0000000   0.0000000), wk =   0.2222222
        k(    2) = (   0.0000000   0.3333333   0.0000000), wk =   1.3333333
        k(    3) = (   0.3333333   0.3333333   0.0000000), wk =   0.4444444

     Dense  grid:   388955 G-vectors     FFT dimensions: (  81,  81, 135)

     Dynamical RAM for                 wfc:      88.97 MB

     Dynamical RAM for     wfc (w. buffer):     355.88 MB

     Dynamical RAM for           str. fact:      17.80 MB

     Dynamical RAM for           local pot:       0.00 MB

     Dynamical RAM for          nlocal pot:     461.17 MB

     Dynamical RAM for                qrad:       3.88 MB

     Dynamical RAM for          rho,v,vnew:      38.08 MB

     Dynamical RAM for               rhoin:      12.69 MB

     Dynamical RAM for            rho*nmix:      94.96 MB

     Dynamical RAM for           G-vectors:      25.22 MB

     Dynamical RAM for          h,s,v(r/c):      10.55 MB

     Dynamical RAM for          <psi|beta>:       1.14 MB

     Dynamical RAM for                 psi:     355.88 MB

     Dynamical RAM for                hpsi:     355.88 MB

     Dynamical RAM for      wfcinit/wfcrot:    1200.93 MB

     Estimated static dynamical RAM per process >       1.04 GB

     Estimated max dynamical RAM per process >       2.21 GB

     Initial potential from superposition of free atoms
     Check: negative starting charge=   -0.005972

     starting charge  199.97158, renormalised to  200.00000

     negative rho (up, down):  5.973E-03 0.000E+00
     Starting wfcs are  800 randomized atomic wfcs

     total cpu time spent up to now is      381.9 secs

     Self-consistent Calculation

     iteration #  1     ecut=    30.00 Ry     beta= 0.70
     Davidson diagonalization with overlap
     ethr =  1.00E-02,  avg # of iterations =  2.0

     negative rho (up, down):  1.241E-03 0.000E+00

     total cpu time spent up to now is      510.0 secs

     total energy              =    -444.81033953 Ry
     Harris-Foulkes estimate   =    -451.57654375 Ry
     estimated scf accuracy    <      10.19050813 Ry

     iteration #  2     ecut=    30.00 Ry     beta= 0.70
     Davidson diagonalization with overlap
     ethr =  5.10E-03,  avg # of iterations =  5.7

     negative rho (up, down):  8.025E-04 0.000E+00

     total cpu time spent up to now is      660.9 secs

     total energy              =    -442.98388179 Ry
     Harris-Foulkes estimate   =    -450.96591453 Ry
     estimated scf accuracy    <      17.51884087 Ry

     iteration #  3     ecut=    30.00 Ry     beta= 0.70
     Davidson diagonalization with overlap
     ethr =  5.10E-03,  avg # of iterations =  6.3

     negative rho (up, down):  4.422E-04 0.000E+00

     total cpu time spent up to now is      822.9 secs

     total energy              =    -438.03574431 Ry
     Harris-Foulkes estimate   =    -454.59515787 Ry
     estimated scf accuracy    <     153.02700772 Ry

     iteration #  4     ecut=    30.00 Ry     beta= 0.70
     Davidson diagonalization with overlap
     ethr =  5.10E-03,  avg # of iterations =  5.3

     negative rho (up, down):  1.966E-04 0.000E+00

     total cpu time spent up to now is      943.8 secs

     total energy              =    -448.33804328 Ry
     Harris-Foulkes estimate   =    -448.45600278 Ry
     estimated scf accuracy    <       0.30415712 Ry

     iteration #  5     ecut=    30.00 Ry     beta= 0.70
     Davidson diagonalization with overlap
     ethr =  1.52E-04,  avg # of iterations = 10.0

     negative rho (up, down):  7.194E-06 0.000E+00

     total cpu time spent up to now is     1143.5 secs

     total energy              =    -448.57053403 Ry
     Harris-Foulkes estimate   =    -448.64144547 Ry
     estimated scf accuracy    <       0.22427475 Ry

     iteration #  6     ecut=    30.00 Ry     beta= 0.70
     Davidson diagonalization with overlap
     ethr =  1.12E-04,  avg # of iterations =  2.0

     total cpu time spent up to now is     1244.7 secs

     total energy              =    -448.59212129 Ry
     Harris-Foulkes estimate   =    -448.60177225 Ry
     estimated scf accuracy    <       0.02286636 Ry

     iteration #  7     ecut=    30.00 Ry     beta= 0.70
     Davidson diagonalization with overlap
     ethr =  1.14E-05,  avg # of iterations =  8.7

     total cpu time spent up to now is     1403.7 secs

     total energy              =    -448.59375501 Ry
     Harris-Foulkes estimate   =    -448.60204053 Ry
     estimated scf accuracy    <       0.02205729 Ry

     iteration #  8     ecut=    30.00 Ry     beta= 0.70
     Davidson diagonalization with overlap
     ethr =  1.10E-05,  avg # of iterations =  4.0

     total cpu time spent up to now is     1514.4 secs

     total energy              =    -448.59777061 Ry
     Harris-Foulkes estimate   =    -448.59939367 Ry
     estimated scf accuracy    <       0.00513894 Ry

     iteration #  9     ecut=    30.00 Ry     beta= 0.70
     Davidson diagonalization with overlap
     ethr =  2.57E-06,  avg # of iterations =  3.0

     total cpu time spent up to now is     1619.2 secs

     total energy              =    -448.59859398 Ry
     Harris-Foulkes estimate   =    -448.59864412 Ry
     estimated scf accuracy    <       0.00016013 Ry

     iteration # 10     ecut=    30.00 Ry     beta= 0.70
     Davidson diagonalization with overlap
     ethr =  8.01E-08,  avg # of iterations =  3.7

     total cpu time spent up to now is     1771.1 secs

     total energy              =    -448.59864211 Ry
     Harris-Foulkes estimate   =    -448.59867865 Ry
     estimated scf accuracy    <       0.00011673 Ry

     iteration # 11     ecut=    30.00 Ry     beta= 0.70
     Davidson diagonalization with overlap
     ethr =  5.84E-08,  avg # of iterations =  2.0

     total cpu time spent up to now is     1874.1 secs

     End of self-consistent calculation

          k = 0.0000 0.0000 0.0000 ( 48515 PWs)   bands (ev):

   -15.6313 -14.6206 -14.6128 -14.6127 -14.5963 -14.5962 -14.5873 -12.8564
   -12.8549 -12.8398 -12.8398 -12.8307 -12.8307 -12.6111 -12.6111 -12.6101
   -12.1125 -10.9823 -10.9823 -10.9822 -10.9800 -10.9800 -10.9782  -9.6689
    -9.6689  -9.6687  -9.1719  -9.1708  -9.1595  -9.1595  -8.4351  -8.4351
    -8.4255  -8.4255  -8.4224  -8.4223  -6.9910  -6.9907  -6.9907  -6.9884
    -6.9884  -6.9873  -6.4281  -6.4281  -6.4117  -6.4115  -6.4102  -6.4102
    -6.2305  -6.2252  -6.2251  -6.2157  -6.2156  -6.2112  -5.6687  -4.6234
    -4.6234  -4.5546  -4.5473  -4.5473  -4.5383  -4.5379  -4.5379  -4.5319
    -4.5319  -4.5241  -4.3682  -3.8639  -3.8607  -3.8606  -3.8544  -3.8544
    -3.8513  -2.9568  -2.9567  -2.7156  -2.6997  -2.6940  -2.6940  -2.6906
    -2.6902  -2.6902  -2.6726  -2.6726  -2.6703  -2.6637  -2.6568  -2.6568
    -2.6490  -2.6127  -2.6127  -2.5998  -2.5998  -2.3951  -2.3951  -2.3940
    -1.4906  -1.4905  -0.9373  -0.9373  -0.9128  -0.9126  -0.6968   0.2200
     0.2200   0.2229   0.3077   0.3108   0.3108   0.7774   0.7774   0.7790
     1.0487   1.0487   1.0595   1.0876   1.2437   1.2552   1.2553   1.7958

     occupation numbers 
     1.0000   1.0000   1.0000   1.0000   1.0000   1.0000   1.0000   1.0000
     1.0000   1.0000   1.0000   1.0000   1.0000   1.0000   1.0000   1.0000
     1.0000   1.0000   1.0000   1.0000   1.0000   1.0000   1.0000   1.0000
     1.0000   1.0000   1.0000   1.0000   1.0000   1.0000   1.0000   1.0000
     1.0000   1.0000   1.0000   1.0000   1.0000   1.0000   1.0000   1.0000
     1.0000   1.0000   1.0000   1.0000   1.0000   1.0000   1.0000   1.0000
     1.0000   1.0000   1.0000   1.0000   1.0000   1.0000   1.0000   1.0000
     1.0000   1.0000   1.0000   1.0000   1.0000   1.0000   1.0000   1.0000
     1.0000   1.0000   1.0000   1.0000   1.0000   1.0000   1.0000   1.0000
     1.0000   1.0000   1.0000   1.0000   1.0000   1.0000   1.0000   1.0000
     1.0000   1.0000   1.0000   1.0000   1.0000   1.0000   1.0000   1.0000
     1.0000   1.0000   1.0000   1.0000   1.0000   1.0000   1.0000   1.0000
     1.0000   1.0000   0.6260   0.6260   0.3755   0.3729  -0.0003  -0.0000
    -0.0000  -0.0000  -0.0000  -0.0000  -0.0000  -0.0000  -0.0000  -0.0000
    -0.0000  -0.0000  -0.0000  -0.0000  -0.0000  -0.0000  -0.0000  -0.0000

          k = 0.0000 0.3849 0.0000 ( 48609 PWs)   bands (ev):

   -15.5147 -15.1675 -14.8269 -14.8261 -14.1717 -14.1715 -13.8623 -13.5579
   -13.5579 -13.0574 -12.7924 -12.7905 -12.6759 -12.6742 -12.2488 -12.2484
   -11.9815 -11.5939 -11.2170 -11.2164 -10.5274 -10.5268 -10.2975  -9.8973
    -9.8966  -9.4269  -9.4268  -9.0523  -9.0067  -9.0048  -8.8441  -8.8441
    -8.4182  -8.4177  -8.1184  -7.7428  -7.7340  -7.7339  -7.6944  -7.6941
    -7.0031  -7.0030  -6.9521  -6.9521  -6.4454  -6.4451  -5.8710  -5.8709
    -5.6379  -5.5553  -5.5492  -5.5452  -5.4470  -5.4466  -5.0859  -4.9689
    -4.9687  -4.7697  -4.7691  -4.7104  -4.5417  -4.4571  -4.4232  -4.4228
    -4.2888  -4.2888  -4.2131  -4.0839  -4.0839  -3.9306  -3.9305  -3.7560
    -3.4771  -3.4510  -3.4287  -3.4285  -3.4191  -3.4191  -3.0990  -3.0202
    -2.9954  -2.9951  -2.9294  -2.9003  -2.7326  -2.7321  -2.6251  -2.5925
    -2.5895  -2.4884  -2.4857  -2.2491  -2.1776  -2.1771  -2.1409  -1.9693
    -1.9685  -1.7454  -1.5790  -1.5787  -0.3261  -0.3249  -0.1793   0.1359
     0.1370   0.4923   0.6108   0.7601   0.8138   0.8183   1.1331   1.1424
     1.1987   1.2307   1.2352   1.2732   1.4864   1.4913   1.5780   1.5874

     occupation numbers 
     1.0000   1.0000   1.0000   1.0000   1.0000   1.0000   1.0000   1.0000
     1.0000   1.0000   1.0000   1.0000   1.0000   1.0000   1.0000   1.0000
     1.0000   1.0000   1.0000   1.0000   1.0000   1.0000   1.0000   1.0000
     1.0000   1.0000   1.0000   1.0000   1.0000   1.0000   1.0000   1.0000
     1.0000   1.0000   1.0000   1.0000   1.0000   1.0000   1.0000   1.0000
     1.0000   1.0000   1.0000   1.0000   1.0000   1.0000   1.0000   1.0000
     1.0000   1.0000   1.0000   1.0000   1.0000   1.0000   1.0000   1.0000
     1.0000   1.0000   1.0000   1.0000   1.0000   1.0000   1.0000   1.0000
     1.0000   1.0000   1.0000   1.0000   1.0000   1.0000   1.0000   1.0000
     1.0000   1.0000   1.0000   1.0000   1.0000   1.0000   1.0000   1.0000
     1.0000   1.0000   1.0000   1.0000   1.0000   1.0000   1.0000   1.0000
     1.0000   1.0000   1.0000   1.0000   1.0000   1.0000   1.0000   1.0000
     1.0000   1.0000   1.0000   1.0000  -0.0000  -0.0000  -0.0000  -0.0000
    -0.0000  -0.0000  -0.0000  -0.0000  -0.0000  -0.0000  -0.0000  -0.0000
    -0.0000  -0.0000  -0.0000  -0.0000  -0.0000  -0.0000  -0.0000  -0.0000

          k = 0.3333 0.5774 0.0000 ( 48552 PWs)   bands (ev):

   -15.2980 -15.2796 -15.2697 -14.2767 -14.2767 -14.2765 -13.3951 -13.3881
   -13.3872 -13.3726 -13.3715 -13.3644 -12.3936 -12.3753 -12.3659 -12.0154
   -11.7231 -11.7222 -11.7199 -10.6148 -10.6146 -10.6138 -10.0388 -10.0360
   -10.0354  -9.3928  -9.3813  -9.3765  -8.9714  -8.4151  -8.4136  -8.4098
    -8.4035  -8.3962  -8.3956  -8.3757  -8.3716  -8.3708  -7.4719  -7.4609
    -7.4600  -7.4581  -6.5700  -6.5698  -6.5697  -6.0130  -6.0087  -5.9998
    -5.4291  -5.4174  -5.4168  -5.0603  -5.0523  -5.0472  -4.7943  -4.7922
    -4.7869  -4.7787  -4.7728  -4.7704  -4.7418  -4.7415  -4.7412  -4.2901
    -4.2848  -4.2803  -4.1949  -4.1949  -4.1947  -3.8154  -3.8127  -3.8120
    -3.5967  -3.5926  -3.5924  -3.4248  -3.4211  -3.4092  -3.2728  -3.2663
    -3.2595  -3.2041  -3.1958  -3.1902  -2.9913  -2.9911  -2.9906  -2.2885
    -2.2882  -2.2880  -2.2759  -2.2617  -2.2437  -2.1291  -2.1071  -2.0764
    -1.7951  -1.7891  -1.7888  -1.6692  -0.3329  -0.3126  -0.2977   0.2413
     0.3431   0.4057   0.9542   1.0157   1.0520   1.1790   1.2687   1.2689
     1.2731   1.3755   1.3762   1.3763   1.3775   1.3837   1.3855   2.0728

     occupation numbers 
     1.0000   1.0000   1.0000   1.0000   1.0000   1.0000   1.0000   1.0000
     1.0000   1.0000   1.0000   1.0000   1.0000   1.0000   1.0000   1.0000
     1.0000   1.0000   1.0000   1.0000   1.0000   1.0000   1.0000   1.0000
     1.0000   1.0000   1.0000   1.0000   1.0000   1.0000   1.0000   1.0000
     1.0000   1.0000   1.0000   1.0000   1.0000   1.0000   1.0000   1.0000
     1.0000   1.0000   1.0000   1.0000   1.0000   1.0000   1.0000   1.0000
     1.0000   1.0000   1.0000   1.0000   1.0000   1.0000   1.0000   1.0000
     1.0000   1.0000   1.0000   1.0000   1.0000   1.0000   1.0000   1.0000
     1.0000   1.0000   1.0000   1.0000   1.0000   1.0000   1.0000   1.0000
     1.0000   1.0000   1.0000   1.0000   1.0000   1.0000   1.0000   1.0000
     1.0000   1.0000   1.0000   1.0000   1.0000   1.0000   1.0000   1.0000
     1.0000   1.0000   1.0000   1.0000   1.0000   1.0000   1.0000   1.0000
     1.0000   1.0000   1.0000   1.0000  -0.0000  -0.0000  -0.0000  -0.0000
    -0.0000  -0.0000  -0.0000  -0.0000  -0.0000  -0.0000  -0.0000  -0.0000
    -0.0000  -0.0000  -0.0000  -0.0000  -0.0000  -0.0000  -0.0000  -0.0000

     the Fermi energy is    -0.9250 ev

!    total energy              =    -448.59861814 Ry
     Harris-Foulkes estimate   =    -448.59865503 Ry
     estimated scf accuracy    <       0.00004111 Ry

     The total energy is the sum of the following terms:

     one-electron contribution =   -2863.02653368 Ry
     hartree contribution      =    1469.47440103 Ry
     xc contribution           =    -135.69366027 Ry
     ewald contribution        =    1081.09100727 Ry
     Dispersion Correction     =      -0.44313161 Ry
     smearing contrib. (-TS)   =      -0.00070089 Ry

     convergence has been achieved in  11 iterations

     Writing output data file Ge+SiC_I__4.0.save/

     init_run     :    380.12s CPU    381.63s WALL (       1 calls)
     electrons    :   1486.59s CPU   1492.25s WALL (       1 calls)

     Called by init_run:
     wfcinit      :    377.04s CPU    378.44s WALL (       1 calls)
     wfcinit:atom :      0.82s CPU      1.33s WALL (       3 calls)
     wfcinit:wfcr :    369.58s CPU    370.20s WALL (       3 calls)
     potinit      :      1.47s CPU      1.54s WALL (       1 calls)
     hinit0       :      1.39s CPU      1.41s WALL (       1 calls)

     Called by electrons:
     c_bands      :   1382.75s CPU   1388.26s WALL (      11 calls)
     sum_band     :     95.62s CPU     95.69s WALL (      11 calls)
     v_of_rho     :      7.12s CPU      7.18s WALL (      12 calls)
     v_h          :      0.45s CPU      0.46s WALL (      12 calls)
     v_xc         :      6.67s CPU      6.72s WALL (      12 calls)
     mix_rho      :      1.32s CPU      1.38s WALL (      11 calls)

     Called by c_bands:
     init_us_2    :      8.95s CPU      9.09s WALL (      69 calls)
     cegterg      :   1353.78s CPU   1359.27s WALL (      33 calls)

     Called by sum_band:

     Called by *egterg:
     h_psi        :   1203.58s CPU   1206.42s WALL (     194 calls)
     g_psi        :      2.51s CPU      2.52s WALL (     158 calls)
     cdiaghg      :     21.18s CPU     21.19s WALL (     191 calls)
     cegterg:over :    163.12s CPU    163.12s WALL (     158 calls)
     cegterg:upda :     99.44s CPU    101.01s WALL (     158 calls)
     cegterg:last :     44.60s CPU     44.60s WALL (      33 calls)

     Called by h_psi:
     h_psi:pot    :   1201.10s CPU   1201.62s WALL (     194 calls)
     h_psi:calbec :    331.32s CPU    331.33s WALL (     194 calls)
     vloc_psi     :    579.47s CPU    579.97s WALL (     194 calls)
     add_vuspsi   :    290.30s CPU    290.32s WALL (     194 calls)

     General routines
     calbec       :    331.32s CPU    331.33s WALL (     194 calls)
     fft          :      3.00s CPU      3.00s WALL (     120 calls)
     ffts         :      0.27s CPU      0.27s WALL (      11 calls)
     fftw         :    563.77s CPU    564.08s WALL (   30584 calls)

     Parallel routines

     PWSCF        : 31m 7.18s CPU    31m14.56s WALL


   This run was terminated on:   0:53:59  19Apr2020            

=------------------------------------------------------------------------------=
   JOB DONE.
=------------------------------------------------------------------------------=
