
     Program PROJWFC v.6.5 starts on 13Apr2020 at  5:45:11 

     This program is part of the open-source Quantum ESPRESSO suite
     for quantum simulation of materials; please cite
         "P. Giannozzi et al., J. Phys.:Condens. Matter 21 395502 (2009);
         "P. Giannozzi et al., J. Phys.:Condens. Matter 29 465901 (2017);
          URL http://www.quantum-espresso.org", 
     in publications or presentations arising from this work. More details at
     http://www.quantum-espresso.org/quote

     Serial version

     Reading xml data from directory:

     ./work/gesic2.save/

     IMPORTANT: XC functional enforced from input :
     Exchange-correlation= PBE
                           (   1   4   3   4   0   0   0)
     Any further DFT definition will be discarded
     Please, verify this is what you really want

               file Ge.pbe-mt_fhi.UPF: wavefunction(s)  4d 4f renormalized
               file C.pbe-mt_fhi.UPF: wavefunction(s)  4f renormalized
               file Si.pbe-mt_fhi.UPF: wavefunction(s)  4f renormalized

     G-vector sticks info
     --------------------
     sticks:   dense  smooth     PW     G-vecs:    dense   smooth      PW
     Sum        4429    4429   1177               388955   388955   53541


     Linear tetrahedron method (read from file) 
     [opt_tetra]  Linear tetrahedron method is used.

     Calling projwave .... 

  Problem Sizes 
  natomwfc =          800
  nbnd     =          120
  nkstot   =            7
  npwx     =        48666
  nkb      =          622


     Atomic states used for projection
     (read from pseudopotential files):

     state #   1: atom   1 (Ge ), wfc  1 (l=0 m= 1)
     state #   2: atom   1 (Ge ), wfc  2 (l=1 m= 1)
     state #   3: atom   1 (Ge ), wfc  2 (l=1 m= 2)
     state #   4: atom   1 (Ge ), wfc  2 (l=1 m= 3)
     state #   5: atom   1 (Ge ), wfc  3 (l=2 m= 1)
     state #   6: atom   1 (Ge ), wfc  3 (l=2 m= 2)
     state #   7: atom   1 (Ge ), wfc  3 (l=2 m= 3)
     state #   8: atom   1 (Ge ), wfc  3 (l=2 m= 4)
     state #   9: atom   1 (Ge ), wfc  3 (l=2 m= 5)
     state #  10: atom   1 (Ge ), wfc  4 (l=3 m= 1)
     state #  11: atom   1 (Ge ), wfc  4 (l=3 m= 2)
     state #  12: atom   1 (Ge ), wfc  4 (l=3 m= 3)
     state #  13: atom   1 (Ge ), wfc  4 (l=3 m= 4)
     state #  14: atom   1 (Ge ), wfc  4 (l=3 m= 5)
     state #  15: atom   1 (Ge ), wfc  4 (l=3 m= 6)
     state #  16: atom   1 (Ge ), wfc  4 (l=3 m= 7)
     state #  17: atom   2 (Ge ), wfc  1 (l=0 m= 1)
     state #  18: atom   2 (Ge ), wfc  2 (l=1 m= 1)
     state #  19: atom   2 (Ge ), wfc  2 (l=1 m= 2)
     state #  20: atom   2 (Ge ), wfc  2 (l=1 m= 3)
     state #  21: atom   2 (Ge ), wfc  3 (l=2 m= 1)
     state #  22: atom   2 (Ge ), wfc  3 (l=2 m= 2)
     state #  23: atom   2 (Ge ), wfc  3 (l=2 m= 3)
     state #  24: atom   2 (Ge ), wfc  3 (l=2 m= 4)
     state #  25: atom   2 (Ge ), wfc  3 (l=2 m= 5)
     state #  26: atom   2 (Ge ), wfc  4 (l=3 m= 1)
     state #  27: atom   2 (Ge ), wfc  4 (l=3 m= 2)
     state #  28: atom   2 (Ge ), wfc  4 (l=3 m= 3)
     state #  29: atom   2 (Ge ), wfc  4 (l=3 m= 4)
     state #  30: atom   2 (Ge ), wfc  4 (l=3 m= 5)
     state #  31: atom   2 (Ge ), wfc  4 (l=3 m= 6)
     state #  32: atom   2 (Ge ), wfc  4 (l=3 m= 7)
     state #  33: atom   3 (Ge ), wfc  1 (l=0 m= 1)
     state #  34: atom   3 (Ge ), wfc  2 (l=1 m= 1)
     state #  35: atom   3 (Ge ), wfc  2 (l=1 m= 2)
     state #  36: atom   3 (Ge ), wfc  2 (l=1 m= 3)
     state #  37: atom   3 (Ge ), wfc  3 (l=2 m= 1)
     state #  38: atom   3 (Ge ), wfc  3 (l=2 m= 2)
     state #  39: atom   3 (Ge ), wfc  3 (l=2 m= 3)
     state #  40: atom   3 (Ge ), wfc  3 (l=2 m= 4)
     state #  41: atom   3 (Ge ), wfc  3 (l=2 m= 5)
     state #  42: atom   3 (Ge ), wfc  4 (l=3 m= 1)
     state #  43: atom   3 (Ge ), wfc  4 (l=3 m= 2)
     state #  44: atom   3 (Ge ), wfc  4 (l=3 m= 3)
     state #  45: atom   3 (Ge ), wfc  4 (l=3 m= 4)
     state #  46: atom   3 (Ge ), wfc  4 (l=3 m= 5)
     state #  47: atom   3 (Ge ), wfc  4 (l=3 m= 6)
     state #  48: atom   3 (Ge ), wfc  4 (l=3 m= 7)
     state #  49: atom   4 (Ge ), wfc  1 (l=0 m= 1)
     state #  50: atom   4 (Ge ), wfc  2 (l=1 m= 1)
     state #  51: atom   4 (Ge ), wfc  2 (l=1 m= 2)
     state #  52: atom   4 (Ge ), wfc  2 (l=1 m= 3)
     state #  53: atom   4 (Ge ), wfc  3 (l=2 m= 1)
     state #  54: atom   4 (Ge ), wfc  3 (l=2 m= 2)
     state #  55: atom   4 (Ge ), wfc  3 (l=2 m= 3)
     state #  56: atom   4 (Ge ), wfc  3 (l=2 m= 4)
     state #  57: atom   4 (Ge ), wfc  3 (l=2 m= 5)
     state #  58: atom   4 (Ge ), wfc  4 (l=3 m= 1)
     state #  59: atom   4 (Ge ), wfc  4 (l=3 m= 2)
     state #  60: atom   4 (Ge ), wfc  4 (l=3 m= 3)
     state #  61: atom   4 (Ge ), wfc  4 (l=3 m= 4)
     state #  62: atom   4 (Ge ), wfc  4 (l=3 m= 5)
     state #  63: atom   4 (Ge ), wfc  4 (l=3 m= 6)
     state #  64: atom   4 (Ge ), wfc  4 (l=3 m= 7)
     state #  65: atom   5 (Ge ), wfc  1 (l=0 m= 1)
     state #  66: atom   5 (Ge ), wfc  2 (l=1 m= 1)
     state #  67: atom   5 (Ge ), wfc  2 (l=1 m= 2)
     state #  68: atom   5 (Ge ), wfc  2 (l=1 m= 3)
     state #  69: atom   5 (Ge ), wfc  3 (l=2 m= 1)
     state #  70: atom   5 (Ge ), wfc  3 (l=2 m= 2)
     state #  71: atom   5 (Ge ), wfc  3 (l=2 m= 3)
     state #  72: atom   5 (Ge ), wfc  3 (l=2 m= 4)
     state #  73: atom   5 (Ge ), wfc  3 (l=2 m= 5)
     state #  74: atom   5 (Ge ), wfc  4 (l=3 m= 1)
     state #  75: atom   5 (Ge ), wfc  4 (l=3 m= 2)
     state #  76: atom   5 (Ge ), wfc  4 (l=3 m= 3)
     state #  77: atom   5 (Ge ), wfc  4 (l=3 m= 4)
     state #  78: atom   5 (Ge ), wfc  4 (l=3 m= 5)
     state #  79: atom   5 (Ge ), wfc  4 (l=3 m= 6)
     state #  80: atom   5 (Ge ), wfc  4 (l=3 m= 7)
     state #  81: atom   6 (Ge ), wfc  1 (l=0 m= 1)
     state #  82: atom   6 (Ge ), wfc  2 (l=1 m= 1)
     state #  83: atom   6 (Ge ), wfc  2 (l=1 m= 2)
     state #  84: atom   6 (Ge ), wfc  2 (l=1 m= 3)
     state #  85: atom   6 (Ge ), wfc  3 (l=2 m= 1)
     state #  86: atom   6 (Ge ), wfc  3 (l=2 m= 2)
     state #  87: atom   6 (Ge ), wfc  3 (l=2 m= 3)
     state #  88: atom   6 (Ge ), wfc  3 (l=2 m= 4)
     state #  89: atom   6 (Ge ), wfc  3 (l=2 m= 5)
     state #  90: atom   6 (Ge ), wfc  4 (l=3 m= 1)
     state #  91: atom   6 (Ge ), wfc  4 (l=3 m= 2)
     state #  92: atom   6 (Ge ), wfc  4 (l=3 m= 3)
     state #  93: atom   6 (Ge ), wfc  4 (l=3 m= 4)
     state #  94: atom   6 (Ge ), wfc  4 (l=3 m= 5)
     state #  95: atom   6 (Ge ), wfc  4 (l=3 m= 6)
     state #  96: atom   6 (Ge ), wfc  4 (l=3 m= 7)
     state #  97: atom   7 (Ge ), wfc  1 (l=0 m= 1)
     state #  98: atom   7 (Ge ), wfc  2 (l=1 m= 1)
     state #  99: atom   7 (Ge ), wfc  2 (l=1 m= 2)
     state # 100: atom   7 (Ge ), wfc  2 (l=1 m= 3)
     state # 101: atom   7 (Ge ), wfc  3 (l=2 m= 1)
     state # 102: atom   7 (Ge ), wfc  3 (l=2 m= 2)
     state # 103: atom   7 (Ge ), wfc  3 (l=2 m= 3)
     state # 104: atom   7 (Ge ), wfc  3 (l=2 m= 4)
     state # 105: atom   7 (Ge ), wfc  3 (l=2 m= 5)
     state # 106: atom   7 (Ge ), wfc  4 (l=3 m= 1)
     state # 107: atom   7 (Ge ), wfc  4 (l=3 m= 2)
     state # 108: atom   7 (Ge ), wfc  4 (l=3 m= 3)
     state # 109: atom   7 (Ge ), wfc  4 (l=3 m= 4)
     state # 110: atom   7 (Ge ), wfc  4 (l=3 m= 5)
     state # 111: atom   7 (Ge ), wfc  4 (l=3 m= 6)
     state # 112: atom   7 (Ge ), wfc  4 (l=3 m= 7)
     state # 113: atom   8 (Ge ), wfc  1 (l=0 m= 1)
     state # 114: atom   8 (Ge ), wfc  2 (l=1 m= 1)
     state # 115: atom   8 (Ge ), wfc  2 (l=1 m= 2)
     state # 116: atom   8 (Ge ), wfc  2 (l=1 m= 3)
     state # 117: atom   8 (Ge ), wfc  3 (l=2 m= 1)
     state # 118: atom   8 (Ge ), wfc  3 (l=2 m= 2)
     state # 119: atom   8 (Ge ), wfc  3 (l=2 m= 3)
     state # 120: atom   8 (Ge ), wfc  3 (l=2 m= 4)
     state # 121: atom   8 (Ge ), wfc  3 (l=2 m= 5)
     state # 122: atom   8 (Ge ), wfc  4 (l=3 m= 1)
     state # 123: atom   8 (Ge ), wfc  4 (l=3 m= 2)
     state # 124: atom   8 (Ge ), wfc  4 (l=3 m= 3)
     state # 125: atom   8 (Ge ), wfc  4 (l=3 m= 4)
     state # 126: atom   8 (Ge ), wfc  4 (l=3 m= 5)
     state # 127: atom   8 (Ge ), wfc  4 (l=3 m= 6)
     state # 128: atom   8 (Ge ), wfc  4 (l=3 m= 7)
     state # 129: atom   9 (Ge ), wfc  1 (l=0 m= 1)
     state # 130: atom   9 (Ge ), wfc  2 (l=1 m= 1)
     state # 131: atom   9 (Ge ), wfc  2 (l=1 m= 2)
     state # 132: atom   9 (Ge ), wfc  2 (l=1 m= 3)
     state # 133: atom   9 (Ge ), wfc  3 (l=2 m= 1)
     state # 134: atom   9 (Ge ), wfc  3 (l=2 m= 2)
     state # 135: atom   9 (Ge ), wfc  3 (l=2 m= 3)
     state # 136: atom   9 (Ge ), wfc  3 (l=2 m= 4)
     state # 137: atom   9 (Ge ), wfc  3 (l=2 m= 5)
     state # 138: atom   9 (Ge ), wfc  4 (l=3 m= 1)
     state # 139: atom   9 (Ge ), wfc  4 (l=3 m= 2)
     state # 140: atom   9 (Ge ), wfc  4 (l=3 m= 3)
     state # 141: atom   9 (Ge ), wfc  4 (l=3 m= 4)
     state # 142: atom   9 (Ge ), wfc  4 (l=3 m= 5)
     state # 143: atom   9 (Ge ), wfc  4 (l=3 m= 6)
     state # 144: atom   9 (Ge ), wfc  4 (l=3 m= 7)
     state # 145: atom  10 (Ge ), wfc  1 (l=0 m= 1)
     state # 146: atom  10 (Ge ), wfc  2 (l=1 m= 1)
     state # 147: atom  10 (Ge ), wfc  2 (l=1 m= 2)
     state # 148: atom  10 (Ge ), wfc  2 (l=1 m= 3)
     state # 149: atom  10 (Ge ), wfc  3 (l=2 m= 1)
     state # 150: atom  10 (Ge ), wfc  3 (l=2 m= 2)
     state # 151: atom  10 (Ge ), wfc  3 (l=2 m= 3)
     state # 152: atom  10 (Ge ), wfc  3 (l=2 m= 4)
     state # 153: atom  10 (Ge ), wfc  3 (l=2 m= 5)
     state # 154: atom  10 (Ge ), wfc  4 (l=3 m= 1)
     state # 155: atom  10 (Ge ), wfc  4 (l=3 m= 2)
     state # 156: atom  10 (Ge ), wfc  4 (l=3 m= 3)
     state # 157: atom  10 (Ge ), wfc  4 (l=3 m= 4)
     state # 158: atom  10 (Ge ), wfc  4 (l=3 m= 5)
     state # 159: atom  10 (Ge ), wfc  4 (l=3 m= 6)
     state # 160: atom  10 (Ge ), wfc  4 (l=3 m= 7)
     state # 161: atom  11 (Ge ), wfc  1 (l=0 m= 1)
     state # 162: atom  11 (Ge ), wfc  2 (l=1 m= 1)
     state # 163: atom  11 (Ge ), wfc  2 (l=1 m= 2)
     state # 164: atom  11 (Ge ), wfc  2 (l=1 m= 3)
     state # 165: atom  11 (Ge ), wfc  3 (l=2 m= 1)
     state # 166: atom  11 (Ge ), wfc  3 (l=2 m= 2)
     state # 167: atom  11 (Ge ), wfc  3 (l=2 m= 3)
     state # 168: atom  11 (Ge ), wfc  3 (l=2 m= 4)
     state # 169: atom  11 (Ge ), wfc  3 (l=2 m= 5)
     state # 170: atom  11 (Ge ), wfc  4 (l=3 m= 1)
     state # 171: atom  11 (Ge ), wfc  4 (l=3 m= 2)
     state # 172: atom  11 (Ge ), wfc  4 (l=3 m= 3)
     state # 173: atom  11 (Ge ), wfc  4 (l=3 m= 4)
     state # 174: atom  11 (Ge ), wfc  4 (l=3 m= 5)
     state # 175: atom  11 (Ge ), wfc  4 (l=3 m= 6)
     state # 176: atom  11 (Ge ), wfc  4 (l=3 m= 7)
     state # 177: atom  12 (Ge ), wfc  1 (l=0 m= 1)
     state # 178: atom  12 (Ge ), wfc  2 (l=1 m= 1)
     state # 179: atom  12 (Ge ), wfc  2 (l=1 m= 2)
     state # 180: atom  12 (Ge ), wfc  2 (l=1 m= 3)
     state # 181: atom  12 (Ge ), wfc  3 (l=2 m= 1)
     state # 182: atom  12 (Ge ), wfc  3 (l=2 m= 2)
     state # 183: atom  12 (Ge ), wfc  3 (l=2 m= 3)
     state # 184: atom  12 (Ge ), wfc  3 (l=2 m= 4)
     state # 185: atom  12 (Ge ), wfc  3 (l=2 m= 5)
     state # 186: atom  12 (Ge ), wfc  4 (l=3 m= 1)
     state # 187: atom  12 (Ge ), wfc  4 (l=3 m= 2)
     state # 188: atom  12 (Ge ), wfc  4 (l=3 m= 3)
     state # 189: atom  12 (Ge ), wfc  4 (l=3 m= 4)
     state # 190: atom  12 (Ge ), wfc  4 (l=3 m= 5)
     state # 191: atom  12 (Ge ), wfc  4 (l=3 m= 6)
     state # 192: atom  12 (Ge ), wfc  4 (l=3 m= 7)
     state # 193: atom  13 (Ge ), wfc  1 (l=0 m= 1)
     state # 194: atom  13 (Ge ), wfc  2 (l=1 m= 1)
     state # 195: atom  13 (Ge ), wfc  2 (l=1 m= 2)
     state # 196: atom  13 (Ge ), wfc  2 (l=1 m= 3)
     state # 197: atom  13 (Ge ), wfc  3 (l=2 m= 1)
     state # 198: atom  13 (Ge ), wfc  3 (l=2 m= 2)
     state # 199: atom  13 (Ge ), wfc  3 (l=2 m= 3)
     state # 200: atom  13 (Ge ), wfc  3 (l=2 m= 4)
     state # 201: atom  13 (Ge ), wfc  3 (l=2 m= 5)
     state # 202: atom  13 (Ge ), wfc  4 (l=3 m= 1)
     state # 203: atom  13 (Ge ), wfc  4 (l=3 m= 2)
     state # 204: atom  13 (Ge ), wfc  4 (l=3 m= 3)
     state # 205: atom  13 (Ge ), wfc  4 (l=3 m= 4)
     state # 206: atom  13 (Ge ), wfc  4 (l=3 m= 5)
     state # 207: atom  13 (Ge ), wfc  4 (l=3 m= 6)
     state # 208: atom  13 (Ge ), wfc  4 (l=3 m= 7)
     state # 209: atom  14 (Ge ), wfc  1 (l=0 m= 1)
     state # 210: atom  14 (Ge ), wfc  2 (l=1 m= 1)
     state # 211: atom  14 (Ge ), wfc  2 (l=1 m= 2)
     state # 212: atom  14 (Ge ), wfc  2 (l=1 m= 3)
     state # 213: atom  14 (Ge ), wfc  3 (l=2 m= 1)
     state # 214: atom  14 (Ge ), wfc  3 (l=2 m= 2)
     state # 215: atom  14 (Ge ), wfc  3 (l=2 m= 3)
     state # 216: atom  14 (Ge ), wfc  3 (l=2 m= 4)
     state # 217: atom  14 (Ge ), wfc  3 (l=2 m= 5)
     state # 218: atom  14 (Ge ), wfc  4 (l=3 m= 1)
     state # 219: atom  14 (Ge ), wfc  4 (l=3 m= 2)
     state # 220: atom  14 (Ge ), wfc  4 (l=3 m= 3)
     state # 221: atom  14 (Ge ), wfc  4 (l=3 m= 4)
     state # 222: atom  14 (Ge ), wfc  4 (l=3 m= 5)
     state # 223: atom  14 (Ge ), wfc  4 (l=3 m= 6)
     state # 224: atom  14 (Ge ), wfc  4 (l=3 m= 7)
     state # 225: atom  15 (Ge ), wfc  1 (l=0 m= 1)
     state # 226: atom  15 (Ge ), wfc  2 (l=1 m= 1)
     state # 227: atom  15 (Ge ), wfc  2 (l=1 m= 2)
     state # 228: atom  15 (Ge ), wfc  2 (l=1 m= 3)
     state # 229: atom  15 (Ge ), wfc  3 (l=2 m= 1)
     state # 230: atom  15 (Ge ), wfc  3 (l=2 m= 2)
     state # 231: atom  15 (Ge ), wfc  3 (l=2 m= 3)
     state # 232: atom  15 (Ge ), wfc  3 (l=2 m= 4)
     state # 233: atom  15 (Ge ), wfc  3 (l=2 m= 5)
     state # 234: atom  15 (Ge ), wfc  4 (l=3 m= 1)
     state # 235: atom  15 (Ge ), wfc  4 (l=3 m= 2)
     state # 236: atom  15 (Ge ), wfc  4 (l=3 m= 3)
     state # 237: atom  15 (Ge ), wfc  4 (l=3 m= 4)
     state # 238: atom  15 (Ge ), wfc  4 (l=3 m= 5)
     state # 239: atom  15 (Ge ), wfc  4 (l=3 m= 6)
     state # 240: atom  15 (Ge ), wfc  4 (l=3 m= 7)
     state # 241: atom  16 (Ge ), wfc  1 (l=0 m= 1)
     state # 242: atom  16 (Ge ), wfc  2 (l=1 m= 1)
     state # 243: atom  16 (Ge ), wfc  2 (l=1 m= 2)
     state # 244: atom  16 (Ge ), wfc  2 (l=1 m= 3)
     state # 245: atom  16 (Ge ), wfc  3 (l=2 m= 1)
     state # 246: atom  16 (Ge ), wfc  3 (l=2 m= 2)
     state # 247: atom  16 (Ge ), wfc  3 (l=2 m= 3)
     state # 248: atom  16 (Ge ), wfc  3 (l=2 m= 4)
     state # 249: atom  16 (Ge ), wfc  3 (l=2 m= 5)
     state # 250: atom  16 (Ge ), wfc  4 (l=3 m= 1)
     state # 251: atom  16 (Ge ), wfc  4 (l=3 m= 2)
     state # 252: atom  16 (Ge ), wfc  4 (l=3 m= 3)
     state # 253: atom  16 (Ge ), wfc  4 (l=3 m= 4)
     state # 254: atom  16 (Ge ), wfc  4 (l=3 m= 5)
     state # 255: atom  16 (Ge ), wfc  4 (l=3 m= 6)
     state # 256: atom  16 (Ge ), wfc  4 (l=3 m= 7)
     state # 257: atom  17 (Ge ), wfc  1 (l=0 m= 1)
     state # 258: atom  17 (Ge ), wfc  2 (l=1 m= 1)
     state # 259: atom  17 (Ge ), wfc  2 (l=1 m= 2)
     state # 260: atom  17 (Ge ), wfc  2 (l=1 m= 3)
     state # 261: atom  17 (Ge ), wfc  3 (l=2 m= 1)
     state # 262: atom  17 (Ge ), wfc  3 (l=2 m= 2)
     state # 263: atom  17 (Ge ), wfc  3 (l=2 m= 3)
     state # 264: atom  17 (Ge ), wfc  3 (l=2 m= 4)
     state # 265: atom  17 (Ge ), wfc  3 (l=2 m= 5)
     state # 266: atom  17 (Ge ), wfc  4 (l=3 m= 1)
     state # 267: atom  17 (Ge ), wfc  4 (l=3 m= 2)
     state # 268: atom  17 (Ge ), wfc  4 (l=3 m= 3)
     state # 269: atom  17 (Ge ), wfc  4 (l=3 m= 4)
     state # 270: atom  17 (Ge ), wfc  4 (l=3 m= 5)
     state # 271: atom  17 (Ge ), wfc  4 (l=3 m= 6)
     state # 272: atom  17 (Ge ), wfc  4 (l=3 m= 7)
     state # 273: atom  18 (Ge ), wfc  1 (l=0 m= 1)
     state # 274: atom  18 (Ge ), wfc  2 (l=1 m= 1)
     state # 275: atom  18 (Ge ), wfc  2 (l=1 m= 2)
     state # 276: atom  18 (Ge ), wfc  2 (l=1 m= 3)
     state # 277: atom  18 (Ge ), wfc  3 (l=2 m= 1)
     state # 278: atom  18 (Ge ), wfc  3 (l=2 m= 2)
     state # 279: atom  18 (Ge ), wfc  3 (l=2 m= 3)
     state # 280: atom  18 (Ge ), wfc  3 (l=2 m= 4)
     state # 281: atom  18 (Ge ), wfc  3 (l=2 m= 5)
     state # 282: atom  18 (Ge ), wfc  4 (l=3 m= 1)
     state # 283: atom  18 (Ge ), wfc  4 (l=3 m= 2)
     state # 284: atom  18 (Ge ), wfc  4 (l=3 m= 3)
     state # 285: atom  18 (Ge ), wfc  4 (l=3 m= 4)
     state # 286: atom  18 (Ge ), wfc  4 (l=3 m= 5)
     state # 287: atom  18 (Ge ), wfc  4 (l=3 m= 6)
     state # 288: atom  18 (Ge ), wfc  4 (l=3 m= 7)
     state # 289: atom  19 (C  ), wfc  1 (l=0 m= 1)
     state # 290: atom  19 (C  ), wfc  2 (l=1 m= 1)
     state # 291: atom  19 (C  ), wfc  2 (l=1 m= 2)
     state # 292: atom  19 (C  ), wfc  2 (l=1 m= 3)
     state # 293: atom  19 (C  ), wfc  3 (l=2 m= 1)
     state # 294: atom  19 (C  ), wfc  3 (l=2 m= 2)
     state # 295: atom  19 (C  ), wfc  3 (l=2 m= 3)
     state # 296: atom  19 (C  ), wfc  3 (l=2 m= 4)
     state # 297: atom  19 (C  ), wfc  3 (l=2 m= 5)
     state # 298: atom  19 (C  ), wfc  4 (l=3 m= 1)
     state # 299: atom  19 (C  ), wfc  4 (l=3 m= 2)
     state # 300: atom  19 (C  ), wfc  4 (l=3 m= 3)
     state # 301: atom  19 (C  ), wfc  4 (l=3 m= 4)
     state # 302: atom  19 (C  ), wfc  4 (l=3 m= 5)
     state # 303: atom  19 (C  ), wfc  4 (l=3 m= 6)
     state # 304: atom  19 (C  ), wfc  4 (l=3 m= 7)
     state # 305: atom  20 (Si ), wfc  1 (l=0 m= 1)
     state # 306: atom  20 (Si ), wfc  2 (l=1 m= 1)
     state # 307: atom  20 (Si ), wfc  2 (l=1 m= 2)
     state # 308: atom  20 (Si ), wfc  2 (l=1 m= 3)
     state # 309: atom  20 (Si ), wfc  3 (l=2 m= 1)
     state # 310: atom  20 (Si ), wfc  3 (l=2 m= 2)
     state # 311: atom  20 (Si ), wfc  3 (l=2 m= 3)
     state # 312: atom  20 (Si ), wfc  3 (l=2 m= 4)
     state # 313: atom  20 (Si ), wfc  3 (l=2 m= 5)
     state # 314: atom  20 (Si ), wfc  4 (l=3 m= 1)
     state # 315: atom  20 (Si ), wfc  4 (l=3 m= 2)
     state # 316: atom  20 (Si ), wfc  4 (l=3 m= 3)
     state # 317: atom  20 (Si ), wfc  4 (l=3 m= 4)
     state # 318: atom  20 (Si ), wfc  4 (l=3 m= 5)
     state # 319: atom  20 (Si ), wfc  4 (l=3 m= 6)
     state # 320: atom  20 (Si ), wfc  4 (l=3 m= 7)
     state # 321: atom  21 (C  ), wfc  1 (l=0 m= 1)
     state # 322: atom  21 (C  ), wfc  2 (l=1 m= 1)
     state # 323: atom  21 (C  ), wfc  2 (l=1 m= 2)
     state # 324: atom  21 (C  ), wfc  2 (l=1 m= 3)
     state # 325: atom  21 (C  ), wfc  3 (l=2 m= 1)
     state # 326: atom  21 (C  ), wfc  3 (l=2 m= 2)
     state # 327: atom  21 (C  ), wfc  3 (l=2 m= 3)
     state # 328: atom  21 (C  ), wfc  3 (l=2 m= 4)
     state # 329: atom  21 (C  ), wfc  3 (l=2 m= 5)
     state # 330: atom  21 (C  ), wfc  4 (l=3 m= 1)
     state # 331: atom  21 (C  ), wfc  4 (l=3 m= 2)
     state # 332: atom  21 (C  ), wfc  4 (l=3 m= 3)
     state # 333: atom  21 (C  ), wfc  4 (l=3 m= 4)
     state # 334: atom  21 (C  ), wfc  4 (l=3 m= 5)
     state # 335: atom  21 (C  ), wfc  4 (l=3 m= 6)
     state # 336: atom  21 (C  ), wfc  4 (l=3 m= 7)
     state # 337: atom  22 (Si ), wfc  1 (l=0 m= 1)
     state # 338: atom  22 (Si ), wfc  2 (l=1 m= 1)
     state # 339: atom  22 (Si ), wfc  2 (l=1 m= 2)
     state # 340: atom  22 (Si ), wfc  2 (l=1 m= 3)
     state # 341: atom  22 (Si ), wfc  3 (l=2 m= 1)
     state # 342: atom  22 (Si ), wfc  3 (l=2 m= 2)
     state # 343: atom  22 (Si ), wfc  3 (l=2 m= 3)
     state # 344: atom  22 (Si ), wfc  3 (l=2 m= 4)
     state # 345: atom  22 (Si ), wfc  3 (l=2 m= 5)
     state # 346: atom  22 (Si ), wfc  4 (l=3 m= 1)
     state # 347: atom  22 (Si ), wfc  4 (l=3 m= 2)
     state # 348: atom  22 (Si ), wfc  4 (l=3 m= 3)
     state # 349: atom  22 (Si ), wfc  4 (l=3 m= 4)
     state # 350: atom  22 (Si ), wfc  4 (l=3 m= 5)
     state # 351: atom  22 (Si ), wfc  4 (l=3 m= 6)
     state # 352: atom  22 (Si ), wfc  4 (l=3 m= 7)
     state # 353: atom  23 (C  ), wfc  1 (l=0 m= 1)
     state # 354: atom  23 (C  ), wfc  2 (l=1 m= 1)
     state # 355: atom  23 (C  ), wfc  2 (l=1 m= 2)
     state # 356: atom  23 (C  ), wfc  2 (l=1 m= 3)
     state # 357: atom  23 (C  ), wfc  3 (l=2 m= 1)
     state # 358: atom  23 (C  ), wfc  3 (l=2 m= 2)
     state # 359: atom  23 (C  ), wfc  3 (l=2 m= 3)
     state # 360: atom  23 (C  ), wfc  3 (l=2 m= 4)
     state # 361: atom  23 (C  ), wfc  3 (l=2 m= 5)
     state # 362: atom  23 (C  ), wfc  4 (l=3 m= 1)
     state # 363: atom  23 (C  ), wfc  4 (l=3 m= 2)
     state # 364: atom  23 (C  ), wfc  4 (l=3 m= 3)
     state # 365: atom  23 (C  ), wfc  4 (l=3 m= 4)
     state # 366: atom  23 (C  ), wfc  4 (l=3 m= 5)
     state # 367: atom  23 (C  ), wfc  4 (l=3 m= 6)
     state # 368: atom  23 (C  ), wfc  4 (l=3 m= 7)
     state # 369: atom  24 (Si ), wfc  1 (l=0 m= 1)
     state # 370: atom  24 (Si ), wfc  2 (l=1 m= 1)
     state # 371: atom  24 (Si ), wfc  2 (l=1 m= 2)
     state # 372: atom  24 (Si ), wfc  2 (l=1 m= 3)
     state # 373: atom  24 (Si ), wfc  3 (l=2 m= 1)
     state # 374: atom  24 (Si ), wfc  3 (l=2 m= 2)
     state # 375: atom  24 (Si ), wfc  3 (l=2 m= 3)
     state # 376: atom  24 (Si ), wfc  3 (l=2 m= 4)
     state # 377: atom  24 (Si ), wfc  3 (l=2 m= 5)
     state # 378: atom  24 (Si ), wfc  4 (l=3 m= 1)
     state # 379: atom  24 (Si ), wfc  4 (l=3 m= 2)
     state # 380: atom  24 (Si ), wfc  4 (l=3 m= 3)
     state # 381: atom  24 (Si ), wfc  4 (l=3 m= 4)
     state # 382: atom  24 (Si ), wfc  4 (l=3 m= 5)
     state # 383: atom  24 (Si ), wfc  4 (l=3 m= 6)
     state # 384: atom  24 (Si ), wfc  4 (l=3 m= 7)
     state # 385: atom  25 (C  ), wfc  1 (l=0 m= 1)
     state # 386: atom  25 (C  ), wfc  2 (l=1 m= 1)
     state # 387: atom  25 (C  ), wfc  2 (l=1 m= 2)
     state # 388: atom  25 (C  ), wfc  2 (l=1 m= 3)
     state # 389: atom  25 (C  ), wfc  3 (l=2 m= 1)
     state # 390: atom  25 (C  ), wfc  3 (l=2 m= 2)
     state # 391: atom  25 (C  ), wfc  3 (l=2 m= 3)
     state # 392: atom  25 (C  ), wfc  3 (l=2 m= 4)
     state # 393: atom  25 (C  ), wfc  3 (l=2 m= 5)
     state # 394: atom  25 (C  ), wfc  4 (l=3 m= 1)
     state # 395: atom  25 (C  ), wfc  4 (l=3 m= 2)
     state # 396: atom  25 (C  ), wfc  4 (l=3 m= 3)
     state # 397: atom  25 (C  ), wfc  4 (l=3 m= 4)
     state # 398: atom  25 (C  ), wfc  4 (l=3 m= 5)
     state # 399: atom  25 (C  ), wfc  4 (l=3 m= 6)
     state # 400: atom  25 (C  ), wfc  4 (l=3 m= 7)
     state # 401: atom  26 (Si ), wfc  1 (l=0 m= 1)
     state # 402: atom  26 (Si ), wfc  2 (l=1 m= 1)
     state # 403: atom  26 (Si ), wfc  2 (l=1 m= 2)
     state # 404: atom  26 (Si ), wfc  2 (l=1 m= 3)
     state # 405: atom  26 (Si ), wfc  3 (l=2 m= 1)
     state # 406: atom  26 (Si ), wfc  3 (l=2 m= 2)
     state # 407: atom  26 (Si ), wfc  3 (l=2 m= 3)
     state # 408: atom  26 (Si ), wfc  3 (l=2 m= 4)
     state # 409: atom  26 (Si ), wfc  3 (l=2 m= 5)
     state # 410: atom  26 (Si ), wfc  4 (l=3 m= 1)
     state # 411: atom  26 (Si ), wfc  4 (l=3 m= 2)
     state # 412: atom  26 (Si ), wfc  4 (l=3 m= 3)
     state # 413: atom  26 (Si ), wfc  4 (l=3 m= 4)
     state # 414: atom  26 (Si ), wfc  4 (l=3 m= 5)
     state # 415: atom  26 (Si ), wfc  4 (l=3 m= 6)
     state # 416: atom  26 (Si ), wfc  4 (l=3 m= 7)
     state # 417: atom  27 (C  ), wfc  1 (l=0 m= 1)
     state # 418: atom  27 (C  ), wfc  2 (l=1 m= 1)
     state # 419: atom  27 (C  ), wfc  2 (l=1 m= 2)
     state # 420: atom  27 (C  ), wfc  2 (l=1 m= 3)
     state # 421: atom  27 (C  ), wfc  3 (l=2 m= 1)
     state # 422: atom  27 (C  ), wfc  3 (l=2 m= 2)
     state # 423: atom  27 (C  ), wfc  3 (l=2 m= 3)
     state # 424: atom  27 (C  ), wfc  3 (l=2 m= 4)
     state # 425: atom  27 (C  ), wfc  3 (l=2 m= 5)
     state # 426: atom  27 (C  ), wfc  4 (l=3 m= 1)
     state # 427: atom  27 (C  ), wfc  4 (l=3 m= 2)
     state # 428: atom  27 (C  ), wfc  4 (l=3 m= 3)
     state # 429: atom  27 (C  ), wfc  4 (l=3 m= 4)
     state # 430: atom  27 (C  ), wfc  4 (l=3 m= 5)
     state # 431: atom  27 (C  ), wfc  4 (l=3 m= 6)
     state # 432: atom  27 (C  ), wfc  4 (l=3 m= 7)
     state # 433: atom  28 (Si ), wfc  1 (l=0 m= 1)
     state # 434: atom  28 (Si ), wfc  2 (l=1 m= 1)
     state # 435: atom  28 (Si ), wfc  2 (l=1 m= 2)
     state # 436: atom  28 (Si ), wfc  2 (l=1 m= 3)
     state # 437: atom  28 (Si ), wfc  3 (l=2 m= 1)
     state # 438: atom  28 (Si ), wfc  3 (l=2 m= 2)
     state # 439: atom  28 (Si ), wfc  3 (l=2 m= 3)
     state # 440: atom  28 (Si ), wfc  3 (l=2 m= 4)
     state # 441: atom  28 (Si ), wfc  3 (l=2 m= 5)
     state # 442: atom  28 (Si ), wfc  4 (l=3 m= 1)
     state # 443: atom  28 (Si ), wfc  4 (l=3 m= 2)
     state # 444: atom  28 (Si ), wfc  4 (l=3 m= 3)
     state # 445: atom  28 (Si ), wfc  4 (l=3 m= 4)
     state # 446: atom  28 (Si ), wfc  4 (l=3 m= 5)
     state # 447: atom  28 (Si ), wfc  4 (l=3 m= 6)
     state # 448: atom  28 (Si ), wfc  4 (l=3 m= 7)
     state # 449: atom  29 (C  ), wfc  1 (l=0 m= 1)
     state # 450: atom  29 (C  ), wfc  2 (l=1 m= 1)
     state # 451: atom  29 (C  ), wfc  2 (l=1 m= 2)
     state # 452: atom  29 (C  ), wfc  2 (l=1 m= 3)
     state # 453: atom  29 (C  ), wfc  3 (l=2 m= 1)
     state # 454: atom  29 (C  ), wfc  3 (l=2 m= 2)
     state # 455: atom  29 (C  ), wfc  3 (l=2 m= 3)
     state # 456: atom  29 (C  ), wfc  3 (l=2 m= 4)
     state # 457: atom  29 (C  ), wfc  3 (l=2 m= 5)
     state # 458: atom  29 (C  ), wfc  4 (l=3 m= 1)
     state # 459: atom  29 (C  ), wfc  4 (l=3 m= 2)
     state # 460: atom  29 (C  ), wfc  4 (l=3 m= 3)
     state # 461: atom  29 (C  ), wfc  4 (l=3 m= 4)
     state # 462: atom  29 (C  ), wfc  4 (l=3 m= 5)
     state # 463: atom  29 (C  ), wfc  4 (l=3 m= 6)
     state # 464: atom  29 (C  ), wfc  4 (l=3 m= 7)
     state # 465: atom  30 (Si ), wfc  1 (l=0 m= 1)
     state # 466: atom  30 (Si ), wfc  2 (l=1 m= 1)
     state # 467: atom  30 (Si ), wfc  2 (l=1 m= 2)
     state # 468: atom  30 (Si ), wfc  2 (l=1 m= 3)
     state # 469: atom  30 (Si ), wfc  3 (l=2 m= 1)
     state # 470: atom  30 (Si ), wfc  3 (l=2 m= 2)
     state # 471: atom  30 (Si ), wfc  3 (l=2 m= 3)
     state # 472: atom  30 (Si ), wfc  3 (l=2 m= 4)
     state # 473: atom  30 (Si ), wfc  3 (l=2 m= 5)
     state # 474: atom  30 (Si ), wfc  4 (l=3 m= 1)
     state # 475: atom  30 (Si ), wfc  4 (l=3 m= 2)
     state # 476: atom  30 (Si ), wfc  4 (l=3 m= 3)
     state # 477: atom  30 (Si ), wfc  4 (l=3 m= 4)
     state # 478: atom  30 (Si ), wfc  4 (l=3 m= 5)
     state # 479: atom  30 (Si ), wfc  4 (l=3 m= 6)
     state # 480: atom  30 (Si ), wfc  4 (l=3 m= 7)
     state # 481: atom  31 (C  ), wfc  1 (l=0 m= 1)
     state # 482: atom  31 (C  ), wfc  2 (l=1 m= 1)
     state # 483: atom  31 (C  ), wfc  2 (l=1 m= 2)
     state # 484: atom  31 (C  ), wfc  2 (l=1 m= 3)
     state # 485: atom  31 (C  ), wfc  3 (l=2 m= 1)
     state # 486: atom  31 (C  ), wfc  3 (l=2 m= 2)
     state # 487: atom  31 (C  ), wfc  3 (l=2 m= 3)
     state # 488: atom  31 (C  ), wfc  3 (l=2 m= 4)
     state # 489: atom  31 (C  ), wfc  3 (l=2 m= 5)
     state # 490: atom  31 (C  ), wfc  4 (l=3 m= 1)
     state # 491: atom  31 (C  ), wfc  4 (l=3 m= 2)
     state # 492: atom  31 (C  ), wfc  4 (l=3 m= 3)
     state # 493: atom  31 (C  ), wfc  4 (l=3 m= 4)
     state # 494: atom  31 (C  ), wfc  4 (l=3 m= 5)
     state # 495: atom  31 (C  ), wfc  4 (l=3 m= 6)
     state # 496: atom  31 (C  ), wfc  4 (l=3 m= 7)
     state # 497: atom  32 (Si ), wfc  1 (l=0 m= 1)
     state # 498: atom  32 (Si ), wfc  2 (l=1 m= 1)
     state # 499: atom  32 (Si ), wfc  2 (l=1 m= 2)
     state # 500: atom  32 (Si ), wfc  2 (l=1 m= 3)
     state # 501: atom  32 (Si ), wfc  3 (l=2 m= 1)
     state # 502: atom  32 (Si ), wfc  3 (l=2 m= 2)
     state # 503: atom  32 (Si ), wfc  3 (l=2 m= 3)
     state # 504: atom  32 (Si ), wfc  3 (l=2 m= 4)
     state # 505: atom  32 (Si ), wfc  3 (l=2 m= 5)
     state # 506: atom  32 (Si ), wfc  4 (l=3 m= 1)
     state # 507: atom  32 (Si ), wfc  4 (l=3 m= 2)
     state # 508: atom  32 (Si ), wfc  4 (l=3 m= 3)
     state # 509: atom  32 (Si ), wfc  4 (l=3 m= 4)
     state # 510: atom  32 (Si ), wfc  4 (l=3 m= 5)
     state # 511: atom  32 (Si ), wfc  4 (l=3 m= 6)
     state # 512: atom  32 (Si ), wfc  4 (l=3 m= 7)
     state # 513: atom  33 (C  ), wfc  1 (l=0 m= 1)
     state # 514: atom  33 (C  ), wfc  2 (l=1 m= 1)
     state # 515: atom  33 (C  ), wfc  2 (l=1 m= 2)
     state # 516: atom  33 (C  ), wfc  2 (l=1 m= 3)
     state # 517: atom  33 (C  ), wfc  3 (l=2 m= 1)
     state # 518: atom  33 (C  ), wfc  3 (l=2 m= 2)
     state # 519: atom  33 (C  ), wfc  3 (l=2 m= 3)
     state # 520: atom  33 (C  ), wfc  3 (l=2 m= 4)
     state # 521: atom  33 (C  ), wfc  3 (l=2 m= 5)
     state # 522: atom  33 (C  ), wfc  4 (l=3 m= 1)
     state # 523: atom  33 (C  ), wfc  4 (l=3 m= 2)
     state # 524: atom  33 (C  ), wfc  4 (l=3 m= 3)
     state # 525: atom  33 (C  ), wfc  4 (l=3 m= 4)
     state # 526: atom  33 (C  ), wfc  4 (l=3 m= 5)
     state # 527: atom  33 (C  ), wfc  4 (l=3 m= 6)
     state # 528: atom  33 (C  ), wfc  4 (l=3 m= 7)
     state # 529: atom  34 (Si ), wfc  1 (l=0 m= 1)
     state # 530: atom  34 (Si ), wfc  2 (l=1 m= 1)
     state # 531: atom  34 (Si ), wfc  2 (l=1 m= 2)
     state # 532: atom  34 (Si ), wfc  2 (l=1 m= 3)
     state # 533: atom  34 (Si ), wfc  3 (l=2 m= 1)
     state # 534: atom  34 (Si ), wfc  3 (l=2 m= 2)
     state # 535: atom  34 (Si ), wfc  3 (l=2 m= 3)
     state # 536: atom  34 (Si ), wfc  3 (l=2 m= 4)
     state # 537: atom  34 (Si ), wfc  3 (l=2 m= 5)
     state # 538: atom  34 (Si ), wfc  4 (l=3 m= 1)
     state # 539: atom  34 (Si ), wfc  4 (l=3 m= 2)
     state # 540: atom  34 (Si ), wfc  4 (l=3 m= 3)
     state # 541: atom  34 (Si ), wfc  4 (l=3 m= 4)
     state # 542: atom  34 (Si ), wfc  4 (l=3 m= 5)
     state # 543: atom  34 (Si ), wfc  4 (l=3 m= 6)
     state # 544: atom  34 (Si ), wfc  4 (l=3 m= 7)
     state # 545: atom  35 (C  ), wfc  1 (l=0 m= 1)
     state # 546: atom  35 (C  ), wfc  2 (l=1 m= 1)
     state # 547: atom  35 (C  ), wfc  2 (l=1 m= 2)
     state # 548: atom  35 (C  ), wfc  2 (l=1 m= 3)
     state # 549: atom  35 (C  ), wfc  3 (l=2 m= 1)
     state # 550: atom  35 (C  ), wfc  3 (l=2 m= 2)
     state # 551: atom  35 (C  ), wfc  3 (l=2 m= 3)
     state # 552: atom  35 (C  ), wfc  3 (l=2 m= 4)
     state # 553: atom  35 (C  ), wfc  3 (l=2 m= 5)
     state # 554: atom  35 (C  ), wfc  4 (l=3 m= 1)
     state # 555: atom  35 (C  ), wfc  4 (l=3 m= 2)
     state # 556: atom  35 (C  ), wfc  4 (l=3 m= 3)
     state # 557: atom  35 (C  ), wfc  4 (l=3 m= 4)
     state # 558: atom  35 (C  ), wfc  4 (l=3 m= 5)
     state # 559: atom  35 (C  ), wfc  4 (l=3 m= 6)
     state # 560: atom  35 (C  ), wfc  4 (l=3 m= 7)
     state # 561: atom  36 (Si ), wfc  1 (l=0 m= 1)
     state # 562: atom  36 (Si ), wfc  2 (l=1 m= 1)
     state # 563: atom  36 (Si ), wfc  2 (l=1 m= 2)
     state # 564: atom  36 (Si ), wfc  2 (l=1 m= 3)
     state # 565: atom  36 (Si ), wfc  3 (l=2 m= 1)
     state # 566: atom  36 (Si ), wfc  3 (l=2 m= 2)
     state # 567: atom  36 (Si ), wfc  3 (l=2 m= 3)
     state # 568: atom  36 (Si ), wfc  3 (l=2 m= 4)
     state # 569: atom  36 (Si ), wfc  3 (l=2 m= 5)
     state # 570: atom  36 (Si ), wfc  4 (l=3 m= 1)
     state # 571: atom  36 (Si ), wfc  4 (l=3 m= 2)
     state # 572: atom  36 (Si ), wfc  4 (l=3 m= 3)
     state # 573: atom  36 (Si ), wfc  4 (l=3 m= 4)
     state # 574: atom  36 (Si ), wfc  4 (l=3 m= 5)
     state # 575: atom  36 (Si ), wfc  4 (l=3 m= 6)
     state # 576: atom  36 (Si ), wfc  4 (l=3 m= 7)
     state # 577: atom  37 (C  ), wfc  1 (l=0 m= 1)
     state # 578: atom  37 (C  ), wfc  2 (l=1 m= 1)
     state # 579: atom  37 (C  ), wfc  2 (l=1 m= 2)
     state # 580: atom  37 (C  ), wfc  2 (l=1 m= 3)
     state # 581: atom  37 (C  ), wfc  3 (l=2 m= 1)
     state # 582: atom  37 (C  ), wfc  3 (l=2 m= 2)
     state # 583: atom  37 (C  ), wfc  3 (l=2 m= 3)
     state # 584: atom  37 (C  ), wfc  3 (l=2 m= 4)
     state # 585: atom  37 (C  ), wfc  3 (l=2 m= 5)
     state # 586: atom  37 (C  ), wfc  4 (l=3 m= 1)
     state # 587: atom  37 (C  ), wfc  4 (l=3 m= 2)
     state # 588: atom  37 (C  ), wfc  4 (l=3 m= 3)
     state # 589: atom  37 (C  ), wfc  4 (l=3 m= 4)
     state # 590: atom  37 (C  ), wfc  4 (l=3 m= 5)
     state # 591: atom  37 (C  ), wfc  4 (l=3 m= 6)
     state # 592: atom  37 (C  ), wfc  4 (l=3 m= 7)
     state # 593: atom  38 (Si ), wfc  1 (l=0 m= 1)
     state # 594: atom  38 (Si ), wfc  2 (l=1 m= 1)
     state # 595: atom  38 (Si ), wfc  2 (l=1 m= 2)
     state # 596: atom  38 (Si ), wfc  2 (l=1 m= 3)
     state # 597: atom  38 (Si ), wfc  3 (l=2 m= 1)
     state # 598: atom  38 (Si ), wfc  3 (l=2 m= 2)
     state # 599: atom  38 (Si ), wfc  3 (l=2 m= 3)
     state # 600: atom  38 (Si ), wfc  3 (l=2 m= 4)
     state # 601: atom  38 (Si ), wfc  3 (l=2 m= 5)
     state # 602: atom  38 (Si ), wfc  4 (l=3 m= 1)
     state # 603: atom  38 (Si ), wfc  4 (l=3 m= 2)
     state # 604: atom  38 (Si ), wfc  4 (l=3 m= 3)
     state # 605: atom  38 (Si ), wfc  4 (l=3 m= 4)
     state # 606: atom  38 (Si ), wfc  4 (l=3 m= 5)
     state # 607: atom  38 (Si ), wfc  4 (l=3 m= 6)
     state # 608: atom  38 (Si ), wfc  4 (l=3 m= 7)
     state # 609: atom  39 (C  ), wfc  1 (l=0 m= 1)
     state # 610: atom  39 (C  ), wfc  2 (l=1 m= 1)
     state # 611: atom  39 (C  ), wfc  2 (l=1 m= 2)
     state # 612: atom  39 (C  ), wfc  2 (l=1 m= 3)
     state # 613: atom  39 (C  ), wfc  3 (l=2 m= 1)
     state # 614: atom  39 (C  ), wfc  3 (l=2 m= 2)
     state # 615: atom  39 (C  ), wfc  3 (l=2 m= 3)
     state # 616: atom  39 (C  ), wfc  3 (l=2 m= 4)
     state # 617: atom  39 (C  ), wfc  3 (l=2 m= 5)
     state # 618: atom  39 (C  ), wfc  4 (l=3 m= 1)
     state # 619: atom  39 (C  ), wfc  4 (l=3 m= 2)
     state # 620: atom  39 (C  ), wfc  4 (l=3 m= 3)
     state # 621: atom  39 (C  ), wfc  4 (l=3 m= 4)
     state # 622: atom  39 (C  ), wfc  4 (l=3 m= 5)
     state # 623: atom  39 (C  ), wfc  4 (l=3 m= 6)
     state # 624: atom  39 (C  ), wfc  4 (l=3 m= 7)
     state # 625: atom  40 (Si ), wfc  1 (l=0 m= 1)
     state # 626: atom  40 (Si ), wfc  2 (l=1 m= 1)
     state # 627: atom  40 (Si ), wfc  2 (l=1 m= 2)
     state # 628: atom  40 (Si ), wfc  2 (l=1 m= 3)
     state # 629: atom  40 (Si ), wfc  3 (l=2 m= 1)
     state # 630: atom  40 (Si ), wfc  3 (l=2 m= 2)
     state # 631: atom  40 (Si ), wfc  3 (l=2 m= 3)
     state # 632: atom  40 (Si ), wfc  3 (l=2 m= 4)
     state # 633: atom  40 (Si ), wfc  3 (l=2 m= 5)
     state # 634: atom  40 (Si ), wfc  4 (l=3 m= 1)
     state # 635: atom  40 (Si ), wfc  4 (l=3 m= 2)
     state # 636: atom  40 (Si ), wfc  4 (l=3 m= 3)
     state # 637: atom  40 (Si ), wfc  4 (l=3 m= 4)
     state # 638: atom  40 (Si ), wfc  4 (l=3 m= 5)
     state # 639: atom  40 (Si ), wfc  4 (l=3 m= 6)
     state # 640: atom  40 (Si ), wfc  4 (l=3 m= 7)
     state # 641: atom  41 (C  ), wfc  1 (l=0 m= 1)
     state # 642: atom  41 (C  ), wfc  2 (l=1 m= 1)
     state # 643: atom  41 (C  ), wfc  2 (l=1 m= 2)
     state # 644: atom  41 (C  ), wfc  2 (l=1 m= 3)
     state # 645: atom  41 (C  ), wfc  3 (l=2 m= 1)
     state # 646: atom  41 (C  ), wfc  3 (l=2 m= 2)
     state # 647: atom  41 (C  ), wfc  3 (l=2 m= 3)
     state # 648: atom  41 (C  ), wfc  3 (l=2 m= 4)
     state # 649: atom  41 (C  ), wfc  3 (l=2 m= 5)
     state # 650: atom  41 (C  ), wfc  4 (l=3 m= 1)
     state # 651: atom  41 (C  ), wfc  4 (l=3 m= 2)
     state # 652: atom  41 (C  ), wfc  4 (l=3 m= 3)
     state # 653: atom  41 (C  ), wfc  4 (l=3 m= 4)
     state # 654: atom  41 (C  ), wfc  4 (l=3 m= 5)
     state # 655: atom  41 (C  ), wfc  4 (l=3 m= 6)
     state # 656: atom  41 (C  ), wfc  4 (l=3 m= 7)
     state # 657: atom  42 (Si ), wfc  1 (l=0 m= 1)
     state # 658: atom  42 (Si ), wfc  2 (l=1 m= 1)
     state # 659: atom  42 (Si ), wfc  2 (l=1 m= 2)
     state # 660: atom  42 (Si ), wfc  2 (l=1 m= 3)
     state # 661: atom  42 (Si ), wfc  3 (l=2 m= 1)
     state # 662: atom  42 (Si ), wfc  3 (l=2 m= 2)
     state # 663: atom  42 (Si ), wfc  3 (l=2 m= 3)
     state # 664: atom  42 (Si ), wfc  3 (l=2 m= 4)
     state # 665: atom  42 (Si ), wfc  3 (l=2 m= 5)
     state # 666: atom  42 (Si ), wfc  4 (l=3 m= 1)
     state # 667: atom  42 (Si ), wfc  4 (l=3 m= 2)
     state # 668: atom  42 (Si ), wfc  4 (l=3 m= 3)
     state # 669: atom  42 (Si ), wfc  4 (l=3 m= 4)
     state # 670: atom  42 (Si ), wfc  4 (l=3 m= 5)
     state # 671: atom  42 (Si ), wfc  4 (l=3 m= 6)
     state # 672: atom  42 (Si ), wfc  4 (l=3 m= 7)
     state # 673: atom  43 (C  ), wfc  1 (l=0 m= 1)
     state # 674: atom  43 (C  ), wfc  2 (l=1 m= 1)
     state # 675: atom  43 (C  ), wfc  2 (l=1 m= 2)
     state # 676: atom  43 (C  ), wfc  2 (l=1 m= 3)
     state # 677: atom  43 (C  ), wfc  3 (l=2 m= 1)
     state # 678: atom  43 (C  ), wfc  3 (l=2 m= 2)
     state # 679: atom  43 (C  ), wfc  3 (l=2 m= 3)
     state # 680: atom  43 (C  ), wfc  3 (l=2 m= 4)
     state # 681: atom  43 (C  ), wfc  3 (l=2 m= 5)
     state # 682: atom  43 (C  ), wfc  4 (l=3 m= 1)
     state # 683: atom  43 (C  ), wfc  4 (l=3 m= 2)
     state # 684: atom  43 (C  ), wfc  4 (l=3 m= 3)
     state # 685: atom  43 (C  ), wfc  4 (l=3 m= 4)
     state # 686: atom  43 (C  ), wfc  4 (l=3 m= 5)
     state # 687: atom  43 (C  ), wfc  4 (l=3 m= 6)
     state # 688: atom  43 (C  ), wfc  4 (l=3 m= 7)
     state # 689: atom  44 (Si ), wfc  1 (l=0 m= 1)
     state # 690: atom  44 (Si ), wfc  2 (l=1 m= 1)
     state # 691: atom  44 (Si ), wfc  2 (l=1 m= 2)
     state # 692: atom  44 (Si ), wfc  2 (l=1 m= 3)
     state # 693: atom  44 (Si ), wfc  3 (l=2 m= 1)
     state # 694: atom  44 (Si ), wfc  3 (l=2 m= 2)
     state # 695: atom  44 (Si ), wfc  3 (l=2 m= 3)
     state # 696: atom  44 (Si ), wfc  3 (l=2 m= 4)
     state # 697: atom  44 (Si ), wfc  3 (l=2 m= 5)
     state # 698: atom  44 (Si ), wfc  4 (l=3 m= 1)
     state # 699: atom  44 (Si ), wfc  4 (l=3 m= 2)
     state # 700: atom  44 (Si ), wfc  4 (l=3 m= 3)
     state # 701: atom  44 (Si ), wfc  4 (l=3 m= 4)
     state # 702: atom  44 (Si ), wfc  4 (l=3 m= 5)
     state # 703: atom  44 (Si ), wfc  4 (l=3 m= 6)
     state # 704: atom  44 (Si ), wfc  4 (l=3 m= 7)
     state # 705: atom  45 (C  ), wfc  1 (l=0 m= 1)
     state # 706: atom  45 (C  ), wfc  2 (l=1 m= 1)
     state # 707: atom  45 (C  ), wfc  2 (l=1 m= 2)
     state # 708: atom  45 (C  ), wfc  2 (l=1 m= 3)
     state # 709: atom  45 (C  ), wfc  3 (l=2 m= 1)
     state # 710: atom  45 (C  ), wfc  3 (l=2 m= 2)
     state # 711: atom  45 (C  ), wfc  3 (l=2 m= 3)
     state # 712: atom  45 (C  ), wfc  3 (l=2 m= 4)
     state # 713: atom  45 (C  ), wfc  3 (l=2 m= 5)
     state # 714: atom  45 (C  ), wfc  4 (l=3 m= 1)
     state # 715: atom  45 (C  ), wfc  4 (l=3 m= 2)
     state # 716: atom  45 (C  ), wfc  4 (l=3 m= 3)
     state # 717: atom  45 (C  ), wfc  4 (l=3 m= 4)
     state # 718: atom  45 (C  ), wfc  4 (l=3 m= 5)
     state # 719: atom  45 (C  ), wfc  4 (l=3 m= 6)
     state # 720: atom  45 (C  ), wfc  4 (l=3 m= 7)
     state # 721: atom  46 (Si ), wfc  1 (l=0 m= 1)
     state # 722: atom  46 (Si ), wfc  2 (l=1 m= 1)
     state # 723: atom  46 (Si ), wfc  2 (l=1 m= 2)
     state # 724: atom  46 (Si ), wfc  2 (l=1 m= 3)
     state # 725: atom  46 (Si ), wfc  3 (l=2 m= 1)
     state # 726: atom  46 (Si ), wfc  3 (l=2 m= 2)
     state # 727: atom  46 (Si ), wfc  3 (l=2 m= 3)
     state # 728: atom  46 (Si ), wfc  3 (l=2 m= 4)
     state # 729: atom  46 (Si ), wfc  3 (l=2 m= 5)
     state # 730: atom  46 (Si ), wfc  4 (l=3 m= 1)
     state # 731: atom  46 (Si ), wfc  4 (l=3 m= 2)
     state # 732: atom  46 (Si ), wfc  4 (l=3 m= 3)
     state # 733: atom  46 (Si ), wfc  4 (l=3 m= 4)
     state # 734: atom  46 (Si ), wfc  4 (l=3 m= 5)
     state # 735: atom  46 (Si ), wfc  4 (l=3 m= 6)
     state # 736: atom  46 (Si ), wfc  4 (l=3 m= 7)
     state # 737: atom  47 (C  ), wfc  1 (l=0 m= 1)
     state # 738: atom  47 (C  ), wfc  2 (l=1 m= 1)
     state # 739: atom  47 (C  ), wfc  2 (l=1 m= 2)
     state # 740: atom  47 (C  ), wfc  2 (l=1 m= 3)
     state # 741: atom  47 (C  ), wfc  3 (l=2 m= 1)
     state # 742: atom  47 (C  ), wfc  3 (l=2 m= 2)
     state # 743: atom  47 (C  ), wfc  3 (l=2 m= 3)
     state # 744: atom  47 (C  ), wfc  3 (l=2 m= 4)
     state # 745: atom  47 (C  ), wfc  3 (l=2 m= 5)
     state # 746: atom  47 (C  ), wfc  4 (l=3 m= 1)
     state # 747: atom  47 (C  ), wfc  4 (l=3 m= 2)
     state # 748: atom  47 (C  ), wfc  4 (l=3 m= 3)
     state # 749: atom  47 (C  ), wfc  4 (l=3 m= 4)
     state # 750: atom  47 (C  ), wfc  4 (l=3 m= 5)
     state # 751: atom  47 (C  ), wfc  4 (l=3 m= 6)
     state # 752: atom  47 (C  ), wfc  4 (l=3 m= 7)
     state # 753: atom  48 (Si ), wfc  1 (l=0 m= 1)
     state # 754: atom  48 (Si ), wfc  2 (l=1 m= 1)
     state # 755: atom  48 (Si ), wfc  2 (l=1 m= 2)
     state # 756: atom  48 (Si ), wfc  2 (l=1 m= 3)
     state # 757: atom  48 (Si ), wfc  3 (l=2 m= 1)
     state # 758: atom  48 (Si ), wfc  3 (l=2 m= 2)
     state # 759: atom  48 (Si ), wfc  3 (l=2 m= 3)
     state # 760: atom  48 (Si ), wfc  3 (l=2 m= 4)
     state # 761: atom  48 (Si ), wfc  3 (l=2 m= 5)
     state # 762: atom  48 (Si ), wfc  4 (l=3 m= 1)
     state # 763: atom  48 (Si ), wfc  4 (l=3 m= 2)
     state # 764: atom  48 (Si ), wfc  4 (l=3 m= 3)
     state # 765: atom  48 (Si ), wfc  4 (l=3 m= 4)
     state # 766: atom  48 (Si ), wfc  4 (l=3 m= 5)
     state # 767: atom  48 (Si ), wfc  4 (l=3 m= 6)
     state # 768: atom  48 (Si ), wfc  4 (l=3 m= 7)
     state # 769: atom  49 (C  ), wfc  1 (l=0 m= 1)
     state # 770: atom  49 (C  ), wfc  2 (l=1 m= 1)
     state # 771: atom  49 (C  ), wfc  2 (l=1 m= 2)
     state # 772: atom  49 (C  ), wfc  2 (l=1 m= 3)
     state # 773: atom  49 (C  ), wfc  3 (l=2 m= 1)
     state # 774: atom  49 (C  ), wfc  3 (l=2 m= 2)
     state # 775: atom  49 (C  ), wfc  3 (l=2 m= 3)
     state # 776: atom  49 (C  ), wfc  3 (l=2 m= 4)
     state # 777: atom  49 (C  ), wfc  3 (l=2 m= 5)
     state # 778: atom  49 (C  ), wfc  4 (l=3 m= 1)
     state # 779: atom  49 (C  ), wfc  4 (l=3 m= 2)
     state # 780: atom  49 (C  ), wfc  4 (l=3 m= 3)
     state # 781: atom  49 (C  ), wfc  4 (l=3 m= 4)
     state # 782: atom  49 (C  ), wfc  4 (l=3 m= 5)
     state # 783: atom  49 (C  ), wfc  4 (l=3 m= 6)
     state # 784: atom  49 (C  ), wfc  4 (l=3 m= 7)
     state # 785: atom  50 (Si ), wfc  1 (l=0 m= 1)
     state # 786: atom  50 (Si ), wfc  2 (l=1 m= 1)
     state # 787: atom  50 (Si ), wfc  2 (l=1 m= 2)
     state # 788: atom  50 (Si ), wfc  2 (l=1 m= 3)
     state # 789: atom  50 (Si ), wfc  3 (l=2 m= 1)
     state # 790: atom  50 (Si ), wfc  3 (l=2 m= 2)
     state # 791: atom  50 (Si ), wfc  3 (l=2 m= 3)
     state # 792: atom  50 (Si ), wfc  3 (l=2 m= 4)
     state # 793: atom  50 (Si ), wfc  3 (l=2 m= 5)
     state # 794: atom  50 (Si ), wfc  4 (l=3 m= 1)
     state # 795: atom  50 (Si ), wfc  4 (l=3 m= 2)
     state # 796: atom  50 (Si ), wfc  4 (l=3 m= 3)
     state # 797: atom  50 (Si ), wfc  4 (l=3 m= 4)
     state # 798: atom  50 (Si ), wfc  4 (l=3 m= 5)
     state # 799: atom  50 (Si ), wfc  4 (l=3 m= 6)
     state # 800: atom  50 (Si ), wfc  4 (l=3 m= 7)

 k =   0.0000000000  0.0000000000  0.0000000000
==== e(   1) =   -15.91866 eV ==== 
     psi = 0.028*[# 289]+0.026*[# 321]+0.026*[# 385]+0.026*[# 417]+0.026*[# 449]
          +0.026*[# 673]+0.026*[# 769]+0.025*[# 305]+0.025*[# 401]+0.025*[# 785]
          +0.024*[# 577]+0.024*[# 705]+0.024*[# 737]+0.024*[# 433]+0.024*[# 689]
          +0.024*[# 753]+0.024*[# 353]+0.024*[# 545]+0.024*[# 609]+0.023*[# 481]
          +0.023*[# 513]+0.023*[# 641]+0.023*[# 337]+0.023*[# 369]+0.023*[# 465]
          +0.023*[# 529]+0.023*[# 561]+0.023*[# 593]+0.023*[# 625]+0.023*[# 657]
          +0.023*[# 721]+0.021*[# 497]+0.007*[# 293]+0.007*[# 325]+0.007*[# 389]
          +0.007*[# 421]+0.007*[# 453]+0.007*[# 677]+0.007*[# 773]+0.007*[# 581]
          +0.007*[# 709]+0.007*[# 741]+0.007*[# 357]+0.007*[# 485]+0.007*[# 517]
          +0.007*[# 549]+0.007*[# 613]+0.007*[# 645]+0.006*[# 309]+0.006*[# 405]
          +0.006*[# 789]+0.006*[# 437]+0.006*[# 693]+0.006*[# 757]+0.006*[# 341]
          +0.006*[# 373]+0.006*[# 469]+0.006*[# 533]+0.006*[# 565]+0.006*[# 597]
          +0.006*[# 629]+0.006*[# 661]+0.006*[# 725]+0.005*[# 501]+0.001*[#   2]
          +0.001*[#  34]+0.001*[#  66]+0.001*[#  98]+0.001*[# 130]+0.001*[# 162]
          +0.001*[# 194]+0.001*[# 226]+0.001*[# 258]
    |psi|^2 = 0.995
==== e(   2) =   -14.91404 eV ==== 
     psi = 0.124*[# 289]+0.044*[# 305]+0.044*[# 401]+0.044*[# 785]+0.026*[# 756]
          +0.024*[# 577]+0.024*[# 705]+0.024*[# 737]+0.021*[# 561]+0.021*[# 593]
          +0.021*[# 721]+0.020*[# 435]+0.020*[# 691]+0.016*[# 308]+0.014*[# 353]
          +0.014*[# 545]+0.014*[# 609]+0.012*[# 321]+0.012*[# 385]+0.012*[# 417]
          +0.012*[# 449]+0.012*[# 497]+0.012*[# 673]+0.012*[# 769]+0.012*[# 403]
          +0.012*[# 787]+0.010*[# 531]+0.010*[# 659]+0.010*[# 293]+0.009*[# 340]
          +0.009*[# 468]+0.008*[# 309]+0.008*[# 405]+0.008*[# 552]+0.008*[# 789]
          +0.008*[# 419]+0.008*[# 675]+0.007*[# 481]+0.007*[# 513]+0.007*[# 641]
          +0.007*[# 372]+0.007*[# 388]+0.007*[# 436]+0.007*[# 628]+0.007*[# 692]
          +0.007*[# 772]+0.006*[# 361]+0.006*[# 617]+0.005*[# 324]+0.005*[# 452]
          +0.005*[# 377]+0.005*[# 633]+0.005*[# 344]+0.005*[# 472]+0.004*[# 565]
          +0.004*[# 597]+0.004*[# 725]+0.004*[# 371]+0.004*[# 627]+0.004*[# 404]
          +0.004*[# 788]+0.004*[# 312]+0.003*[# 740]+0.003*[# 536]+0.003*[# 664]
          +0.003*[# 409]+0.003*[# 793]+0.003*[#   2]+0.003*[# 323]+0.003*[# 451]
          +0.003*[# 579]+0.003*[# 707]+0.002*[# 537]+0.002*[# 744]+0.002*[# 424]
          +0.002*[# 665]+0.002*[# 680]+0.002*[# 329]+0.002*[# 360]+0.002*[# 457]
          +0.002*[# 581]+0.002*[# 616]+0.002*[# 501]+0.002*[# 564]+0.002*[# 709]
          +0.002*[# 741]+0.002*[# 585]+0.002*[# 713]+0.002*[# 337]+0.002*[# 369]
          +0.002*[# 465]+0.002*[# 484]+0.002*[# 488]+0.002*[# 529]+0.002*[# 625]
          +0.002*[# 657]+0.001*[# 339]+0.001*[# 357]+0.001*[# 387]+0.001*[# 393]
          +0.001*[# 467]+0.001*[# 549]+0.001*[# 595]+0.001*[# 613]+0.001*[# 723]
          +0.001*[# 771]+0.001*[# 777]+0.001*[# 515]+0.001*[# 521]+0.001*[# 643]
          +0.001*[# 649]+0.001*[# 226]+0.001*[# 325]+0.001*[# 389]
    |psi|^2 = 0.996
==== e(   3) =   -14.90405 eV ==== 
     psi = 0.042*[# 321]+0.042*[# 385]+0.042*[# 417]+0.042*[# 449]+0.042*[# 673]
          +0.042*[# 769]+0.032*[# 433]+0.032*[# 689]+0.032*[# 753]+0.017*[# 577]
          +0.017*[# 705]+0.017*[# 737]+0.016*[# 305]+0.016*[# 401]+0.016*[# 785]
          +0.015*[# 307]+0.015*[# 563]+0.013*[# 404]+0.013*[# 788]+0.012*[# 337]
          +0.012*[# 369]+0.012*[# 465]+0.012*[# 529]+0.012*[# 625]+0.012*[# 657]
          +0.011*[# 596]+0.011*[# 724]+0.009*[# 481]+0.009*[# 513]+0.009*[# 641]
          +0.009*[# 403]+0.009*[# 531]+0.009*[# 659]+0.009*[# 787]+0.008*[# 340]
          +0.008*[# 468]+0.006*[# 308]+0.006*[# 372]+0.006*[# 628]+0.006*[# 437]
          +0.006*[# 693]+0.006*[# 757]+0.006*[# 291]+0.006*[# 292]+0.006*[# 547]
          +0.005*[# 371]+0.005*[# 627]+0.005*[# 489]+0.005*[# 745]+0.005*[# 356]
          +0.005*[# 612]+0.004*[# 761]+0.004*[# 504]+0.004*[# 505]+0.004*[# 520]
          +0.004*[# 584]+0.004*[# 339]+0.004*[# 421]+0.004*[# 467]+0.004*[# 595]
          +0.004*[# 648]+0.004*[# 712]+0.004*[# 723]+0.004*[# 325]+0.004*[# 389]
          +0.004*[# 453]+0.004*[# 677]+0.004*[# 773]+0.003*[# 755]+0.003*[# 440]
          +0.003*[# 499]+0.003*[# 500]+0.003*[# 696]+0.003*[# 309]+0.003*[# 405]
          +0.003*[# 532]+0.003*[# 660]+0.003*[# 740]+0.003*[# 789]+0.003*[# 420]
          +0.003*[# 436]+0.003*[# 561]+0.003*[# 593]+0.003*[# 676]+0.003*[# 692]
          +0.003*[# 721]+0.003*[# 312]+0.002*[# 323]+0.002*[# 451]+0.002*[# 579]
          +0.002*[# 707]+0.002*[# 341]+0.002*[# 373]+0.002*[# 409]+0.002*[# 469]
          +0.002*[# 484]+0.002*[# 533]+0.002*[# 537]+0.002*[# 629]+0.002*[# 661]
          +0.002*[# 665]+0.002*[# 376]+0.002*[# 793]+0.002*[# 355]+0.002*[# 611]
          +0.002*[# 632]+0.002*[# 329]+0.002*[# 392]+0.002*[# 457]+0.002*[# 585]
          +0.002*[# 713]+0.002*[# 776]+0.002*[# 387]+0.002*[# 425]+0.002*[# 515]
          +0.002*[# 643]+0.002*[# 681]+0.002*[# 771]+0.001*[# 328]+0.002*[# 424]
          +0.001*[# 393]+0.001*[# 456]+0.002*[# 680]+0.001*[# 441]+0.001*[# 521]
          +0.001*[# 581]+0.001*[# 649]+0.001*[# 697]+0.001*[# 709]+0.001*[# 741]
          +0.001*[# 777]+0.001*[# 344]+0.001*[# 435]+0.001*[# 472]+0.001*[# 568]
          +0.001*[# 691]
    |psi|^2 = 0.996
==== e(   4) =   -14.90405 eV ==== 
     psi = 0.042*[# 321]+0.042*[# 385]+0.042*[# 417]+0.042*[# 449]+0.042*[# 673]
          +0.042*[# 769]+0.032*[# 433]+0.032*[# 689]+0.032*[# 753]+0.017*[# 577]
          +0.017*[# 705]+0.017*[# 737]+0.016*[# 305]+0.016*[# 401]+0.016*[# 785]
          +0.015*[# 307]+0.015*[# 563]+0.013*[# 404]+0.013*[# 788]+0.012*[# 337]
          +0.012*[# 369]+0.012*[# 465]+0.012*[# 529]+0.012*[# 625]+0.012*[# 657]
          +0.011*[# 596]+0.011*[# 724]+0.009*[# 481]+0.009*[# 513]+0.009*[# 641]
          +0.009*[# 403]+0.009*[# 531]+0.009*[# 659]+0.009*[# 787]+0.008*[# 340]
          +0.008*[# 468]+0.006*[# 308]+0.006*[# 372]+0.006*[# 628]+0.006*[# 437]
          +0.006*[# 693]+0.006*[# 757]+0.006*[# 291]+0.006*[# 292]+0.006*[# 547]
          +0.005*[# 371]+0.005*[# 627]+0.005*[# 489]+0.005*[# 745]+0.005*[# 356]
          +0.005*[# 612]+0.004*[# 761]+0.004*[# 504]+0.004*[# 505]+0.004*[# 520]
          +0.004*[# 584]+0.004*[# 339]+0.004*[# 421]+0.004*[# 467]+0.004*[# 595]
          +0.004*[# 648]+0.004*[# 712]+0.004*[# 723]+0.004*[# 325]+0.004*[# 389]
          +0.004*[# 453]+0.004*[# 677]+0.004*[# 773]+0.003*[# 755]+0.003*[# 440]
          +0.003*[# 499]+0.003*[# 500]+0.003*[# 696]+0.003*[# 309]+0.003*[# 405]
          +0.003*[# 532]+0.003*[# 660]+0.003*[# 740]+0.003*[# 789]+0.003*[# 420]
          +0.003*[# 436]+0.003*[# 561]+0.003*[# 593]+0.003*[# 676]+0.003*[# 692]
          +0.003*[# 721]+0.003*[# 312]+0.002*[# 323]+0.002*[# 451]+0.002*[# 579]
          +0.002*[# 707]+0.002*[# 341]+0.002*[# 373]+0.002*[# 409]+0.002*[# 469]
          +0.002*[# 484]+0.002*[# 533]+0.002*[# 537]+0.002*[# 629]+0.002*[# 661]
          +0.002*[# 665]+0.002*[# 376]+0.002*[# 793]+0.002*[# 355]+0.002*[# 611]
          +0.002*[# 632]+0.002*[# 329]+0.002*[# 392]+0.002*[# 457]+0.002*[# 585]
          +0.002*[# 713]+0.002*[# 776]+0.002*[# 387]+0.002*[# 425]+0.002*[# 515]
          +0.002*[# 643]+0.002*[# 681]+0.002*[# 771]+0.001*[# 328]+0.002*[# 424]
          +0.001*[# 393]+0.001*[# 456]+0.002*[# 680]+0.001*[# 441]+0.001*[# 521]
          +0.001*[# 581]+0.001*[# 649]+0.001*[# 697]+0.001*[# 709]+0.001*[# 741]
          +0.001*[# 777]+0.001*[# 344]+0.001*[# 435]+0.001*[# 472]+0.001*[# 568]
          +0.001*[# 691]
    |psi|^2 = 0.996
==== e(   5) =   -14.87844 eV ==== 
     psi = 0.053*[# 353]+0.053*[# 545]+0.053*[# 609]+0.025*[# 337]+0.025*[# 369]
          +0.025*[# 465]+0.025*[# 529]+0.025*[# 625]+0.025*[# 657]+0.017*[# 481]
          +0.017*[# 513]+0.017*[# 641]+0.016*[# 755]+0.015*[# 561]+0.015*[# 593]
          +0.015*[# 721]+0.015*[# 321]+0.015*[# 385]+0.015*[# 417]+0.015*[# 449]
          +0.015*[# 673]+0.015*[# 769]+0.015*[# 499]+0.015*[# 500]+0.012*[# 436]
          +0.012*[# 692]+0.010*[# 564]+0.010*[# 577]+0.010*[# 705]+0.010*[# 737]
          +0.008*[# 339]+0.008*[# 467]+0.008*[# 595]+0.008*[# 723]+0.008*[# 372]
          +0.008*[# 628]+0.006*[# 483]+0.006*[# 739]+0.005*[# 433]+0.005*[# 297]
          +0.005*[# 435]+0.005*[# 532]+0.005*[# 660]+0.005*[# 689]+0.005*[# 691]
          +0.005*[# 753]+0.005*[# 296]+0.005*[# 596]+0.005*[# 724]+0.005*[# 341]
          +0.005*[# 357]+0.005*[# 373]+0.005*[# 469]+0.005*[# 533]+0.005*[# 549]
          +0.005*[# 553]+0.005*[# 613]+0.005*[# 629]+0.005*[# 661]+0.005*[# 516]
          +0.005*[# 644]+0.004*[# 580]+0.004*[# 708]+0.004*[# 313]+0.004*[# 308]
          +0.004*[# 403]+0.004*[# 569]+0.004*[# 787]+0.004*[# 360]+0.004*[# 404]
          +0.004*[# 616]+0.004*[# 531]+0.004*[# 788]+0.004*[# 307]+0.004*[# 659]
          +0.003*[# 563]+0.003*[# 600]+0.003*[# 728]+0.003*[# 408]+0.003*[# 792]
          +0.003*[# 305]+0.003*[# 401]+0.003*[# 565]+0.003*[# 597]+0.003*[# 725]
          +0.003*[# 785]+0.002*[# 324]+0.002*[# 387]+0.002*[# 452]+0.002*[# 424]
          +0.002*[# 488]+0.002*[# 515]+0.002*[# 643]+0.002*[# 771]+0.002*[# 680]
          +0.002*[# 345]+0.002*[# 419]+0.002*[# 420]+0.002*[# 473]+0.002*[# 536]
          +0.002*[# 601]+0.002*[# 675]+0.002*[# 676]+0.002*[# 664]+0.002*[# 729]
          +0.002*[# 744]+0.002*[# 323]+0.002*[# 393]+0.002*[# 361]+0.002*[# 388]
          +0.002*[# 451]+0.002*[# 521]+0.002*[# 579]+0.002*[# 617]+0.002*[# 649]
          +0.002*[# 707]+0.002*[# 772]+0.002*[# 777]+0.002*[# 756]+0.001*[# 329]
          +0.001*[# 376]+0.001*[# 457]+0.001*[# 485]+0.001*[# 517]+0.001*[# 585]
          +0.001*[# 632]+0.001*[# 645]+0.001*[# 713]+0.001*[# 377]+0.001*[# 633]
          +0.001*[# 325]+0.001*[# 371]+0.001*[# 389]+0.001*[# 421]+0.001*[# 453]
          +0.001*[# 568]+0.001*[# 409]+0.001*[# 484]+0.001*[# 627]+0.001*[# 677]
          +0.001*[# 773]
    |psi|^2 = 0.996
==== e(   6) =   -14.87844 eV ==== 
     psi = 0.053*[# 353]+0.053*[# 545]+0.053*[# 609]+0.025*[# 337]+0.025*[# 369]
          +0.025*[# 465]+0.025*[# 529]+0.025*[# 625]+0.025*[# 657]+0.017*[# 481]
          +0.017*[# 513]+0.017*[# 641]+0.016*[# 755]+0.015*[# 561]+0.015*[# 593]
          +0.015*[# 721]+0.015*[# 321]+0.015*[# 385]+0.015*[# 417]+0.015*[# 449]
          +0.015*[# 673]+0.015*[# 769]+0.015*[# 499]+0.015*[# 500]+0.012*[# 436]
          +0.012*[# 692]+0.010*[# 564]+0.010*[# 577]+0.010*[# 705]+0.010*[# 737]
          +0.008*[# 339]+0.008*[# 467]+0.008*[# 595]+0.008*[# 723]+0.008*[# 372]
          +0.008*[# 628]+0.006*[# 483]+0.006*[# 739]+0.005*[# 433]+0.005*[# 297]
          +0.005*[# 435]+0.005*[# 532]+0.005*[# 660]+0.005*[# 689]+0.005*[# 691]
          +0.005*[# 753]+0.005*[# 296]+0.005*[# 596]+0.005*[# 724]+0.005*[# 341]
          +0.005*[# 357]+0.005*[# 373]+0.005*[# 469]+0.005*[# 533]+0.005*[# 549]
          +0.005*[# 553]+0.005*[# 613]+0.005*[# 629]+0.005*[# 661]+0.005*[# 516]
          +0.005*[# 644]+0.004*[# 580]+0.004*[# 708]+0.004*[# 313]+0.004*[# 308]
          +0.004*[# 403]+0.004*[# 569]+0.004*[# 787]+0.004*[# 360]+0.004*[# 404]
          +0.004*[# 616]+0.004*[# 531]+0.004*[# 788]+0.004*[# 307]+0.004*[# 659]
          +0.003*[# 563]+0.003*[# 600]+0.003*[# 728]+0.003*[# 408]+0.003*[# 792]
          +0.003*[# 305]+0.003*[# 401]+0.003*[# 565]+0.003*[# 597]+0.003*[# 725]
          +0.003*[# 785]+0.002*[# 324]+0.002*[# 387]+0.002*[# 452]+0.002*[# 424]
          +0.002*[# 488]+0.002*[# 515]+0.002*[# 643]+0.002*[# 771]+0.002*[# 680]
          +0.002*[# 345]+0.002*[# 419]+0.002*[# 420]+0.002*[# 473]+0.002*[# 536]
          +0.002*[# 601]+0.002*[# 675]+0.002*[# 676]+0.002*[# 664]+0.002*[# 729]
          +0.002*[# 744]+0.002*[# 323]+0.002*[# 393]+0.002*[# 361]+0.002*[# 388]
          +0.002*[# 451]+0.002*[# 521]+0.002*[# 579]+0.002*[# 617]+0.002*[# 649]
          +0.002*[# 707]+0.002*[# 772]+0.002*[# 777]+0.002*[# 756]+0.001*[# 329]
          +0.001*[# 376]+0.001*[# 457]+0.001*[# 485]+0.001*[# 517]+0.001*[# 585]
          +0.001*[# 632]+0.001*[# 645]+0.001*[# 713]+0.001*[# 377]+0.001*[# 633]
          +0.001*[# 325]+0.001*[# 371]+0.001*[# 389]+0.001*[# 421]+0.001*[# 453]
          +0.001*[# 568]+0.001*[# 409]+0.001*[# 484]+0.001*[# 627]+0.001*[# 677]
          +0.001*[# 773]
    |psi|^2 = 0.996
==== e(   7) =   -14.86046 eV ==== 
     psi = 0.072*[# 497]+0.063*[# 481]+0.063*[# 513]+0.063*[# 641]+0.046*[# 577]
          +0.046*[# 705]+0.046*[# 737]+0.025*[# 561]+0.025*[# 593]+0.025*[# 721]
          +0.020*[# 371]+0.020*[# 532]+0.020*[# 627]+0.020*[# 660]+0.015*[# 564]
          +0.014*[# 501]+0.011*[# 595]+0.011*[# 723]+0.011*[# 339]+0.011*[# 340]
          +0.011*[# 467]+0.011*[# 468]+0.010*[# 548]+0.008*[# 337]+0.008*[# 369]
          +0.008*[# 465]+0.008*[# 529]+0.008*[# 625]+0.008*[# 657]+0.008*[# 355]
          +0.008*[# 611]+0.008*[# 433]+0.008*[# 689]+0.008*[# 753]+0.007*[# 760]
          +0.006*[# 425]+0.006*[# 681]+0.006*[# 756]+0.005*[# 485]+0.005*[# 517]
          +0.005*[# 645]+0.005*[# 441]+0.005*[# 697]+0.005*[# 328]+0.005*[# 456]
          +0.005*[# 392]+0.004*[# 435]+0.004*[# 565]+0.004*[# 597]+0.004*[# 691]
          +0.004*[# 725]+0.005*[# 776]+0.004*[# 581]+0.004*[# 709]+0.004*[# 741]
          +0.004*[# 596]+0.004*[# 724]+0.003*[# 484]+0.003*[# 568]+0.003*[# 289]
          +0.003*[# 356]+0.003*[# 387]+0.003*[# 420]+0.003*[# 488]+0.003*[# 515]
          +0.003*[# 612]+0.003*[# 643]+0.003*[# 676]+0.003*[# 771]+0.002*[# 162]
          +0.002*[# 345]+0.002*[# 473]+0.002*[# 601]+0.002*[# 729]+0.002*[# 308]
          +0.002*[# 393]+0.002*[# 521]+0.002*[# 536]+0.002*[# 649]+0.002*[# 664]
          +0.002*[# 740]+0.002*[# 777]+0.002*[# 376]+0.002*[# 440]+0.002*[# 696]
          +0.002*[# 744]+0.002*[# 341]+0.002*[# 373]+0.002*[# 469]+0.002*[# 533]
          +0.002*[# 629]+0.002*[# 632]+0.002*[# 661]+0.001*[# 226]+0.001*[# 324]
          +0.001*[# 372]+0.002*[# 403]+0.001*[# 436]+0.002*[# 437]+0.001*[# 323]
          +0.001*[# 451]+0.001*[# 452]+0.001*[# 531]+0.001*[# 579]+0.001*[# 585]
          +0.001*[# 628]+0.001*[# 659]+0.001*[# 692]+0.002*[# 693]+0.001*[# 707]
          +0.002*[# 757]+0.002*[# 787]+0.001*[# 329]+0.001*[# 457]+0.001*[# 713]
          
    |psi|^2 = 0.996
==== e(   8) =   -13.16201 eV ==== 
     psi = 0.144*[# 289]+0.049*[# 308]+0.037*[# 403]+0.037*[# 787]+0.031*[# 312]
          +0.025*[# 497]+0.023*[# 409]+0.023*[# 793]+0.017*[# 321]+0.017*[# 385]
          +0.017*[# 417]+0.017*[# 449]+0.017*[# 673]+0.017*[# 769]+0.015*[# 552]
          +0.015*[# 760]+0.014*[# 564]+0.012*[# 404]+0.012*[# 788]+0.012*[# 481]
          +0.012*[# 513]+0.012*[# 641]+0.011*[# 361]+0.011*[# 577]+0.011*[# 617]
          +0.011*[# 705]+0.011*[# 737]+0.011*[# 441]+0.011*[# 697]+0.011*[# 595]
          +0.011*[# 723]+0.010*[# 371]+0.010*[# 627]+0.009*[# 532]+0.009*[# 660]
          +0.008*[# 408]+0.008*[# 792]+0.007*[# 484]+0.007*[# 340]+0.007*[# 468]
          +0.006*[# 353]+0.006*[# 545]+0.006*[# 609]+0.006*[# 740]+0.006*[# 424]
          +0.006*[# 680]+0.005*[# 515]+0.005*[# 643]+0.005*[# 329]+0.005*[# 457]
          +0.005*[# 536]+0.005*[# 664]+0.005*[# 433]+0.004*[# 345]+0.004*[# 473]
          +0.004*[# 579]+0.005*[# 689]+0.004*[# 707]+0.005*[# 753]+0.005*[# 756]
          +0.004*[# 488]+0.004*[# 339]+0.004*[# 360]+0.004*[# 393]+0.004*[# 440]
          +0.004*[# 467]+0.004*[# 561]+0.004*[# 593]+0.004*[# 616]+0.004*[# 696]
          +0.004*[# 721]+0.004*[# 777]+0.003*[# 435]+0.004*[# 596]+0.003*[# 691]
          +0.004*[# 724]+0.003*[# 377]+0.003*[# 633]+0.003*[# 305]+0.003*[# 401]
          +0.003*[# 521]+0.003*[# 649]+0.003*[# 785]+0.003*[# 337]+0.003*[# 369]
          +0.003*[# 465]+0.003*[# 529]+0.003*[# 625]+0.003*[# 657]+0.002*[# 392]
          +0.002*[# 776]+0.002*[# 419]+0.002*[# 501]+0.002*[# 675]+0.002*[# 376]
          +0.002*[# 632]+0.002*[# 388]+0.002*[# 516]+0.002*[# 531]+0.002*[# 644]
          +0.002*[# 772]+0.002*[# 659]+0.001*[# 580]+0.001*[# 708]+0.001*[# 324]
          +0.001*[# 436]+0.001*[# 452]+0.001*[# 692]
    |psi|^2 = 0.998
==== e(   9) =   -13.16107 eV ==== 
     psi = 0.056*[# 321]+0.056*[# 385]+0.056*[# 417]+0.056*[# 449]+0.056*[# 673]
          +0.056*[# 769]+0.040*[# 755]+0.030*[# 436]+0.030*[# 692]+0.026*[# 313]
          +0.025*[# 307]+0.020*[# 408]+0.020*[# 792]+0.019*[# 404]+0.019*[# 788]
          +0.014*[# 489]+0.013*[# 761]+0.012*[# 337]+0.012*[# 369]+0.012*[# 465]
          +0.012*[# 529]+0.012*[# 625]+0.012*[# 657]+0.011*[# 340]+0.011*[# 468]
          +0.010*[# 520]+0.010*[# 648]+0.010*[# 371]+0.010*[# 435]+0.010*[# 627]
          +0.010*[# 691]+0.010*[# 440]+0.010*[# 696]+0.009*[# 745]+0.009*[# 547]
          +0.007*[# 409]+0.007*[# 537]+0.007*[# 584]+0.007*[# 665]+0.007*[# 712]
          +0.007*[# 793]+0.006*[# 344]+0.006*[# 356]+0.006*[# 472]+0.006*[# 612]
          +0.006*[# 403]+0.006*[# 531]+0.006*[# 659]+0.006*[# 787]+0.005*[# 532]
          +0.005*[# 660]+0.004*[# 376]+0.004*[# 424]+0.004*[# 632]+0.004*[# 680]
          +0.003*[# 393]+0.003*[# 521]+0.003*[# 649]+0.003*[# 777]+0.003*[# 377]
          +0.003*[# 441]+0.003*[# 633]+0.003*[# 697]+0.003*[# 483]+0.002*[# 569]
          +0.002*[# 329]+0.002*[# 355]+0.002*[# 419]+0.002*[# 457]+0.002*[# 516]
          +0.002*[# 585]+0.002*[# 611]+0.002*[# 644]+0.002*[# 675]+0.002*[# 713]
          +0.002*[# 324]+0.002*[# 452]+0.002*[# 563]+0.002*[# 600]+0.002*[# 728]
          +0.002*[# 328]+0.002*[# 456]+0.001*[# 388]+0.001*[# 596]+0.001*[# 724]
          +0.001*[# 739]+0.001*[# 772]+0.001*[# 372]+0.001*[# 628]
    |psi|^2 = 0.998
==== e(  10) =   -13.11239 eV ==== 
     psi = 0.041*[# 353]+0.041*[# 545]+0.041*[# 609]+0.038*[# 577]+0.038*[# 705]
          +0.038*[# 737]+0.019*[# 531]+0.019*[# 659]+0.018*[# 563]+0.017*[# 596]
          +0.017*[# 724]+0.016*[# 321]+0.016*[# 385]+0.016*[# 417]+0.016*[# 449]
          +0.016*[# 673]+0.016*[# 769]+0.015*[# 372]+0.015*[# 628]+0.015*[# 595]
          +0.015*[# 723]+0.014*[# 568]+0.013*[# 564]+0.013*[# 340]+0.013*[# 468]
          +0.013*[# 601]+0.013*[# 729]+0.010*[# 305]+0.010*[# 401]+0.010*[# 600]
          +0.010*[# 728]+0.010*[# 785]+0.010*[# 761]+0.009*[# 433]+0.009*[# 689]
          +0.009*[# 753]+0.009*[# 569]+0.008*[# 296]+0.008*[# 297]+0.008*[# 440]
          +0.008*[# 696]+0.007*[# 756]+0.007*[# 435]+0.007*[# 691]+0.006*[# 376]
          +0.006*[# 632]+0.006*[# 339]+0.006*[# 436]+0.006*[# 467]+0.006*[# 537]
          +0.006*[# 665]+0.006*[# 692]+0.006*[# 441]+0.006*[# 697]+0.005*[# 393]
          +0.005*[# 755]+0.005*[# 488]+0.005*[# 777]+0.005*[# 328]+0.005*[# 456]
          +0.005*[# 553]+0.004*[# 345]+0.004*[# 473]+0.004*[# 323]+0.004*[# 451]
          +0.004*[# 760]+0.004*[# 521]+0.004*[# 649]+0.004*[# 308]+0.004*[# 360]
          +0.004*[# 371]+0.004*[# 420]+0.004*[# 616]+0.004*[# 627]+0.004*[# 676]
          +0.004*[# 344]+0.004*[# 424]+0.004*[# 472]+0.004*[# 680]+0.003*[# 403]
          +0.003*[# 787]+0.003*[# 483]+0.003*[# 388]+0.003*[# 772]+0.003*[# 337]
          +0.003*[# 369]+0.003*[# 425]+0.003*[# 465]+0.003*[# 529]+0.003*[# 625]
          +0.003*[# 657]+0.003*[# 681]+0.003*[# 516]+0.003*[# 644]+0.002*[# 404]
          +0.002*[# 536]+0.002*[# 664]+0.002*[# 788]+0.002*[# 313]+0.002*[# 291]
          +0.002*[# 292]+0.002*[# 307]+0.002*[# 377]+0.002*[# 387]+0.002*[# 499]
          +0.002*[# 500]+0.002*[# 633]+0.002*[# 771]+0.002*[# 361]+0.002*[# 408]
          +0.002*[# 520]+0.002*[# 617]+0.002*[# 648]+0.002*[# 792]+0.001*[# 329]
          +0.001*[# 457]+0.001*[# 515]+0.001*[# 643]+0.001*[# 740]+0.001*[# 419]
          +0.001*[# 548]+0.001*[# 675]+0.001*[# 744]+0.001*[# 392]+0.001*[# 579]
          +0.001*[# 585]+0.001*[# 707]+0.001*[# 713]+0.001*[# 776]
    |psi|^2 = 0.998
==== e(  11) =   -13.11239 eV ==== 
     psi = 0.041*[# 353]+0.041*[# 545]+0.041*[# 609]+0.038*[# 577]+0.038*[# 705]
          +0.038*[# 737]+0.019*[# 531]+0.019*[# 659]+0.018*[# 563]+0.017*[# 596]
          +0.017*[# 724]+0.016*[# 321]+0.016*[# 385]+0.016*[# 417]+0.016*[# 449]
          +0.016*[# 673]+0.016*[# 769]+0.015*[# 372]+0.015*[# 628]+0.015*[# 595]
          +0.015*[# 723]+0.014*[# 568]+0.013*[# 564]+0.013*[# 340]+0.013*[# 468]
          +0.013*[# 601]+0.013*[# 729]+0.010*[# 305]+0.010*[# 401]+0.010*[# 600]
          +0.010*[# 728]+0.010*[# 785]+0.010*[# 761]+0.009*[# 433]+0.009*[# 689]
          +0.009*[# 753]+0.009*[# 569]+0.008*[# 296]+0.008*[# 297]+0.008*[# 440]
          +0.008*[# 696]+0.007*[# 756]+0.007*[# 435]+0.007*[# 691]+0.006*[# 376]
          +0.006*[# 632]+0.006*[# 339]+0.006*[# 436]+0.006*[# 467]+0.006*[# 537]
          +0.006*[# 665]+0.006*[# 692]+0.006*[# 441]+0.006*[# 697]+0.005*[# 393]
          +0.005*[# 755]+0.005*[# 488]+0.005*[# 777]+0.005*[# 328]+0.005*[# 456]
          +0.005*[# 553]+0.004*[# 345]+0.004*[# 473]+0.004*[# 323]+0.004*[# 451]
          +0.004*[# 760]+0.004*[# 521]+0.004*[# 649]+0.004*[# 308]+0.004*[# 360]
          +0.004*[# 371]+0.004*[# 420]+0.004*[# 616]+0.004*[# 627]+0.004*[# 676]
          +0.004*[# 344]+0.004*[# 424]+0.004*[# 472]+0.004*[# 680]+0.003*[# 403]
          +0.003*[# 787]+0.003*[# 483]+0.003*[# 388]+0.003*[# 772]+0.003*[# 337]
          +0.003*[# 369]+0.003*[# 425]+0.003*[# 465]+0.003*[# 529]+0.003*[# 625]
          +0.003*[# 657]+0.003*[# 681]+0.003*[# 516]+0.003*[# 644]+0.002*[# 404]
          +0.002*[# 536]+0.002*[# 664]+0.002*[# 788]+0.002*[# 313]+0.002*[# 291]
          +0.002*[# 292]+0.002*[# 307]+0.002*[# 377]+0.002*[# 387]+0.002*[# 499]
          +0.002*[# 500]+0.002*[# 633]+0.002*[# 771]+0.002*[# 361]+0.002*[# 408]
          +0.002*[# 520]+0.002*[# 617]+0.002*[# 648]+0.002*[# 792]+0.001*[# 329]
          +0.001*[# 457]+0.001*[# 515]+0.001*[# 643]+0.001*[# 740]+0.001*[# 419]
          +0.001*[# 548]+0.001*[# 675]+0.001*[# 744]+0.001*[# 392]+0.001*[# 579]
          +0.001*[# 585]+0.001*[# 707]+0.001*[# 713]+0.001*[# 776]
    |psi|^2 = 0.998
==== e(  12) =   -13.10252 eV ==== 
     psi = 0.050*[# 481]+0.050*[# 513]+0.050*[# 641]+0.021*[# 499]+0.021*[# 500]
          +0.017*[# 577]+0.017*[# 705]+0.017*[# 737]+0.017*[# 756]+0.015*[# 321]
          +0.015*[# 385]+0.015*[# 417]+0.015*[# 449]+0.015*[# 673]+0.015*[# 769]
          +0.015*[# 353]+0.015*[# 532]+0.015*[# 545]+0.015*[# 609]+0.015*[# 660]
          +0.014*[# 339]+0.014*[# 467]+0.014*[# 561]+0.014*[# 593]+0.014*[# 721]
          +0.013*[# 504]+0.013*[# 505]+0.013*[# 307]+0.012*[# 435]+0.012*[# 691]
          +0.010*[# 371]+0.010*[# 377]+0.010*[# 627]+0.010*[# 633]+0.010*[# 404]
          +0.010*[# 788]+0.009*[# 344]+0.009*[# 472]+0.009*[# 536]+0.009*[# 664]
          +0.009*[# 372]+0.009*[# 628]+0.007*[# 537]+0.007*[# 665]+0.007*[# 345]
          +0.007*[# 473]+0.007*[# 744]+0.006*[# 392]+0.006*[# 585]+0.006*[# 713]
          +0.006*[# 776]+0.006*[# 376]+0.006*[# 632]+0.006*[# 563]+0.006*[# 569]
          +0.006*[# 425]+0.006*[# 681]+0.005*[# 584]+0.005*[# 712]+0.005*[# 340]
          +0.005*[# 468]+0.005*[# 596]+0.005*[# 724]+0.005*[# 745]+0.004*[# 531]
          +0.004*[# 600]+0.004*[# 659]+0.004*[# 728]+0.004*[# 329]+0.004*[# 436]
          +0.004*[# 457]+0.004*[# 692]+0.004*[# 739]+0.004*[# 760]+0.004*[# 548]
          +0.003*[# 441]+0.003*[# 580]+0.003*[# 697]+0.003*[# 708]+0.003*[# 403]
          +0.003*[# 787]+0.003*[# 291]+0.003*[# 292]+0.003*[# 337]+0.003*[# 355]
          +0.003*[# 369]+0.003*[# 433]+0.003*[# 465]+0.003*[# 529]+0.003*[# 611]
          +0.003*[# 625]+0.003*[# 657]+0.003*[# 689]+0.003*[# 753]+0.003*[# 324]
          +0.003*[# 328]+0.003*[# 452]+0.003*[# 456]+0.002*[# 305]+0.002*[# 312]
          +0.002*[# 387]+0.002*[# 401]+0.002*[# 595]+0.002*[# 723]+0.002*[# 771]
          +0.002*[# 785]+0.002*[# 409]+0.002*[# 553]+0.002*[# 793]+0.002*[# 360]
          +0.002*[# 440]+0.002*[# 616]+0.002*[# 696]+0.002*[# 296]+0.002*[# 297]
          +0.002*[# 361]+0.002*[# 408]+0.002*[# 419]+0.002*[# 579]+0.002*[# 601]
          +0.002*[# 617]+0.002*[# 675]+0.002*[# 707]+0.002*[# 729]+0.002*[# 792]
          +0.001*[# 356]+0.001*[# 552]+0.001*[# 612]+0.001*[# 313]+0.001*[# 420]
          +0.001*[# 424]+0.001*[# 489]+0.001*[# 564]+0.001*[# 565]+0.001*[# 597]
          +0.001*[# 676]+0.001*[# 680]+0.001*[# 725]
    |psi|^2 = 0.998
==== e(  13) =   -13.10252 eV ==== 
     psi = 0.050*[# 481]+0.050*[# 513]+0.050*[# 641]+0.021*[# 499]+0.021*[# 500]
          +0.017*[# 577]+0.017*[# 705]+0.017*[# 737]+0.017*[# 756]+0.015*[# 321]
          +0.015*[# 385]+0.015*[# 417]+0.015*[# 449]+0.015*[# 673]+0.015*[# 769]
          +0.015*[# 532]+0.015*[# 660]+0.015*[# 353]+0.015*[# 545]+0.015*[# 609]
          +0.014*[# 339]+0.014*[# 467]+0.014*[# 561]+0.014*[# 593]+0.014*[# 721]
          +0.013*[# 504]+0.013*[# 505]+0.013*[# 307]+0.012*[# 435]+0.012*[# 691]
          +0.010*[# 371]+0.010*[# 377]+0.010*[# 627]+0.010*[# 633]+0.010*[# 404]
          +0.010*[# 788]+0.009*[# 344]+0.009*[# 472]+0.009*[# 536]+0.009*[# 664]
          +0.009*[# 372]+0.009*[# 628]+0.007*[# 537]+0.007*[# 665]+0.007*[# 345]
          +0.007*[# 473]+0.007*[# 744]+0.006*[# 392]+0.006*[# 585]+0.006*[# 713]
          +0.006*[# 776]+0.006*[# 376]+0.006*[# 632]+0.006*[# 563]+0.006*[# 569]
          +0.006*[# 425]+0.006*[# 681]+0.005*[# 584]+0.005*[# 712]+0.005*[# 340]
          +0.005*[# 468]+0.005*[# 596]+0.005*[# 724]+0.005*[# 745]+0.004*[# 531]
          +0.004*[# 600]+0.004*[# 659]+0.004*[# 728]+0.004*[# 329]+0.004*[# 436]
          +0.004*[# 457]+0.004*[# 692]+0.004*[# 739]+0.004*[# 760]+0.004*[# 548]
          +0.003*[# 441]+0.003*[# 580]+0.003*[# 697]+0.003*[# 708]+0.003*[# 403]
          +0.003*[# 787]+0.003*[# 291]+0.003*[# 292]+0.003*[# 337]+0.003*[# 355]
          +0.003*[# 369]+0.003*[# 433]+0.003*[# 465]+0.003*[# 529]+0.003*[# 611]
          +0.003*[# 625]+0.003*[# 657]+0.003*[# 689]+0.003*[# 753]+0.003*[# 324]
          +0.003*[# 328]+0.003*[# 452]+0.003*[# 456]+0.002*[# 305]+0.002*[# 312]
          +0.002*[# 387]+0.002*[# 401]+0.002*[# 595]+0.002*[# 723]+0.002*[# 771]
          +0.002*[# 785]+0.002*[# 409]+0.002*[# 553]+0.002*[# 793]+0.002*[# 360]
          +0.002*[# 440]+0.002*[# 616]+0.002*[# 696]+0.002*[# 296]+0.002*[# 297]
          +0.002*[# 361]+0.002*[# 408]+0.002*[# 419]+0.002*[# 579]+0.002*[# 601]
          +0.002*[# 617]+0.002*[# 675]+0.002*[# 707]+0.002*[# 729]+0.002*[# 792]
          +0.001*[# 356]+0.001*[# 552]+0.001*[# 612]+0.001*[# 313]+0.001*[# 420]
          +0.001*[# 424]+0.001*[# 489]+0.001*[# 564]+0.001*[# 565]+0.001*[# 597]
          +0.001*[# 676]+0.001*[# 680]+0.001*[# 725]
    |psi|^2 = 0.998
==== e(  14) =   -12.89066 eV ==== 
     psi = 0.036*[# 481]+0.036*[# 513]+0.036*[# 641]+0.031*[# 577]+0.031*[# 705]
          +0.031*[# 737]+0.025*[# 321]+0.025*[# 385]+0.025*[# 417]+0.025*[# 449]
          +0.025*[# 673]+0.025*[# 769]+0.014*[# 499]+0.014*[# 500]+0.012*[# 371]
          +0.012*[# 563]+0.012*[# 627]+0.011*[# 532]+0.011*[# 660]+0.011*[# 504]
          +0.011*[# 505]+0.011*[# 435]+0.011*[# 436]+0.011*[# 691]+0.011*[# 692]
          +0.011*[# 755]+0.011*[# 756]+0.010*[# 596]+0.010*[# 724]+0.010*[# 553]
          +0.009*[# 307]+0.009*[# 360]+0.009*[# 616]+0.009*[# 377]+0.009*[# 633]
          +0.009*[# 569]+0.008*[# 760]+0.008*[# 489]+0.008*[# 340]+0.008*[# 441]
          +0.008*[# 468]+0.008*[# 697]+0.008*[# 361]+0.008*[# 425]+0.008*[# 617]
          +0.008*[# 681]+0.008*[# 536]+0.008*[# 664]+0.008*[# 313]+0.007*[# 440]
          +0.007*[# 696]+0.007*[# 552]+0.007*[# 745]+0.007*[# 404]+0.007*[# 761]
          +0.007*[# 788]+0.007*[# 600]+0.007*[# 728]+0.006*[# 296]+0.006*[# 297]
          +0.006*[# 520]+0.006*[# 648]+0.006*[# 392]+0.006*[# 776]+0.006*[# 328]
          +0.006*[# 456]+0.006*[# 344]+0.006*[# 472]+0.006*[# 408]+0.006*[# 792]
          +0.006*[# 339]+0.006*[# 467]+0.006*[# 584]+0.006*[# 712]+0.005*[# 595]
          +0.005*[# 723]+0.003*[# 337]+0.004*[# 345]+0.003*[# 369]+0.003*[# 465]
          +0.004*[# 473]+0.003*[# 529]+0.003*[# 625]+0.003*[# 657]+0.003*[# 601]
          +0.003*[# 729]+0.003*[# 329]+0.003*[# 403]+0.003*[# 457]+0.003*[# 787]
          +0.003*[# 393]+0.003*[# 777]+0.003*[# 305]+0.003*[# 401]+0.003*[# 409]
          +0.003*[# 785]+0.003*[# 793]+0.003*[# 521]+0.003*[# 531]+0.003*[# 649]
          +0.003*[# 659]+0.002*[# 561]+0.002*[# 585]+0.002*[# 593]+0.002*[# 713]
          +0.002*[# 721]+0.002*[# 537]+0.002*[# 564]+0.002*[# 665]+0.001*[# 568]
          +0.001*[# 372]+0.001*[# 628]+0.001*[# 312]+0.001*[# 424]+0.001*[# 680]
          
    |psi|^2 = 0.998
==== e(  15) =   -12.89064 eV ==== 
     psi = 0.036*[# 481]+0.036*[# 513]+0.036*[# 641]+0.031*[# 577]+0.031*[# 705]
          +0.031*[# 737]+0.025*[# 321]+0.025*[# 385]+0.025*[# 417]+0.025*[# 449]
          +0.025*[# 673]+0.025*[# 769]+0.014*[# 499]+0.014*[# 500]+0.012*[# 371]
          +0.012*[# 563]+0.012*[# 627]+0.011*[# 532]+0.011*[# 660]+0.011*[# 504]
          +0.011*[# 505]+0.011*[# 435]+0.011*[# 436]+0.011*[# 691]+0.011*[# 692]
          +0.011*[# 755]+0.011*[# 756]+0.010*[# 596]+0.010*[# 724]+0.010*[# 553]
          +0.009*[# 307]+0.009*[# 360]+0.009*[# 616]+0.009*[# 377]+0.009*[# 633]
          +0.009*[# 569]+0.008*[# 760]+0.008*[# 489]+0.008*[# 340]+0.008*[# 441]
          +0.008*[# 468]+0.008*[# 697]+0.008*[# 361]+0.008*[# 425]+0.008*[# 617]
          +0.008*[# 681]+0.008*[# 536]+0.008*[# 664]+0.008*[# 313]+0.007*[# 440]
          +0.007*[# 696]+0.007*[# 552]+0.007*[# 745]+0.007*[# 404]+0.007*[# 761]
          +0.007*[# 788]+0.007*[# 600]+0.007*[# 728]+0.006*[# 296]+0.006*[# 297]
          +0.006*[# 520]+0.006*[# 648]+0.006*[# 392]+0.006*[# 776]+0.006*[# 328]
          +0.006*[# 456]+0.006*[# 344]+0.006*[# 472]+0.006*[# 408]+0.006*[# 792]
          +0.006*[# 339]+0.006*[# 467]+0.006*[# 584]+0.006*[# 712]+0.005*[# 595]
          +0.005*[# 723]+0.003*[# 337]+0.004*[# 345]+0.003*[# 369]+0.003*[# 465]
          +0.004*[# 473]+0.003*[# 529]+0.003*[# 625]+0.003*[# 657]+0.003*[# 601]
          +0.003*[# 729]+0.003*[# 329]+0.003*[# 403]+0.003*[# 457]+0.003*[# 787]
          +0.003*[# 393]+0.003*[# 777]+0.003*[# 305]+0.003*[# 401]+0.003*[# 409]
          +0.003*[# 785]+0.003*[# 793]+0.003*[# 521]+0.003*[# 531]+0.003*[# 649]
          +0.003*[# 659]+0.002*[# 561]+0.002*[# 585]+0.002*[# 593]+0.002*[# 713]
          +0.002*[# 721]+0.002*[# 537]+0.002*[# 564]+0.002*[# 665]+0.001*[# 568]
          +0.001*[# 372]+0.001*[# 628]+0.001*[# 312]+0.001*[# 424]+0.001*[# 680]
          
    |psi|^2 = 0.998
==== e(  16) =   -12.88877 eV ==== 
     psi = 0.074*[# 353]+0.074*[# 545]+0.074*[# 609]+0.041*[# 289]+0.026*[# 564]
          +0.022*[# 372]+0.022*[# 628]+0.020*[# 595]+0.020*[# 723]+0.018*[# 339]
          +0.018*[# 467]+0.017*[# 376]+0.017*[# 632]+0.017*[# 488]+0.016*[# 568]
          +0.015*[# 744]+0.015*[# 531]+0.015*[# 659]+0.014*[# 345]+0.014*[# 473]
          +0.013*[# 308]+0.013*[# 521]+0.013*[# 649]+0.012*[# 537]+0.012*[# 601]
          +0.012*[# 665]+0.012*[# 729]+0.012*[# 424]+0.012*[# 680]+0.012*[# 585]
          +0.012*[# 713]+0.011*[# 497]+0.010*[# 312]+0.010*[# 481]+0.010*[# 513]
          +0.010*[# 641]+0.010*[# 577]+0.010*[# 705]+0.010*[# 737]+0.010*[# 403]
          +0.010*[# 787]+0.009*[# 393]+0.009*[# 777]+0.009*[# 329]+0.009*[# 457]
          +0.008*[# 409]+0.008*[# 793]+0.007*[# 532]+0.007*[# 660]+0.007*[# 596]
          +0.007*[# 724]+0.005*[# 433]+0.005*[# 689]+0.005*[# 753]+0.005*[# 536]
          +0.005*[# 664]+0.005*[# 321]+0.005*[# 385]+0.005*[# 417]+0.005*[# 449]
          +0.005*[# 673]+0.005*[# 769]+0.004*[# 520]+0.004*[# 648]+0.004*[# 600]
          +0.004*[# 728]+0.004*[# 340]+0.004*[# 468]+0.004*[# 584]+0.004*[# 712]
          +0.004*[# 344]+0.004*[# 472]+0.003*[# 328]+0.003*[# 404]+0.003*[# 456]
          +0.003*[# 788]+0.003*[# 392]+0.003*[# 776]+0.003*[# 408]+0.003*[# 792]
          +0.001*[# 337]+0.001*[# 369]+0.001*[# 465]+0.001*[# 529]+0.001*[# 625]
          +0.001*[# 657]
    |psi|^2 = 0.998
==== e(  17) =   -12.00359 eV ==== 
     psi = 0.054*[#   1]+0.052*[#  17]+0.052*[#  81]+0.052*[# 273]+0.051*[# 225]
          +0.050*[#  33]+0.050*[#  65]+0.050*[#  97]+0.050*[# 113]+0.050*[# 129]
          +0.050*[# 193]+0.050*[# 209]+0.050*[# 241]+0.050*[# 257]+0.048*[#  49]
          +0.048*[# 145]+0.048*[# 177]+0.046*[# 161]+0.003*[#   2]+0.002*[#  34]
          +0.002*[#  66]+0.002*[#  98]+0.002*[# 130]+0.002*[# 194]+0.002*[# 226]
          +0.002*[# 258]+0.002*[# 162]+0.002*[#  18]+0.002*[#  82]+0.002*[# 274]
          +0.002*[#  50]+0.002*[# 114]+0.002*[# 210]+0.002*[# 242]+0.002*[# 293]
          +0.002*[# 146]+0.002*[# 178]+0.002*[# 325]+0.002*[# 389]+0.002*[# 421]
          +0.002*[# 453]+0.002*[# 677]+0.002*[# 773]+0.001*[# 581]+0.001*[# 709]
          +0.001*[# 741]+0.001*[# 306]+0.001*[# 357]+0.001*[# 402]+0.001*[# 549]
          +0.001*[# 613]+0.001*[# 338]+0.001*[# 370]+0.001*[# 434]+0.001*[# 466]
          +0.001*[# 786]+0.001*[# 485]+0.001*[# 498]+0.001*[# 517]+0.001*[# 530]
          +0.001*[# 626]+0.001*[# 645]+0.001*[# 658]
    |psi|^2 = 0.998
==== e(  18) =   -10.89303 eV ==== 
     psi = 0.229*[#   1]+0.119*[# 225]+0.073*[#  17]+0.073*[#  81]+0.073*[# 273]
          +0.038*[# 113]+0.038*[# 209]+0.038*[# 241]+0.021*[#  20]+0.017*[#  68]
          +0.017*[# 260]+0.017*[# 161]+0.016*[#  83]+0.016*[# 275]+0.014*[#  35]
          +0.014*[# 131]+0.014*[# 244]+0.012*[#  99]+0.012*[# 195]+0.011*[# 115]
          +0.011*[# 211]+0.008*[# 293]+0.007*[#  49]+0.007*[# 145]+0.007*[# 177]
          +0.006*[#   2]+0.006*[# 100]+0.006*[# 196]+0.005*[#  84]+0.005*[# 276]
          +0.004*[# 116]+0.004*[# 212]+0.003*[# 226]+0.003*[#  36]+0.003*[# 132]
          +0.002*[#  18]+0.002*[#  82]+0.002*[# 274]+0.002*[# 581]+0.002*[# 709]
          +0.002*[# 741]+0.001*[# 306]+0.001*[# 309]+0.001*[# 402]+0.001*[# 405]
          +0.001*[# 786]+0.001*[# 789]
    |psi|^2 = 0.997
==== e(  19) =   -10.88250 eV ==== 
     psi = 0.067*[# 113]+0.067*[# 209]+0.067*[# 241]+0.060*[#  33]+0.060*[#  65]
          +0.060*[#  97]+0.060*[# 129]+0.060*[# 193]+0.060*[# 257]+0.051*[#  17]
          +0.051*[#  81]+0.051*[# 273]+0.016*[# 179]+0.013*[#   3]+0.013*[#   4]
          +0.013*[# 227]+0.013*[# 228]+0.012*[#  52]+0.012*[# 148]+0.009*[#  19]
          +0.008*[#  84]+0.008*[# 276]+0.006*[# 244]+0.004*[#  35]+0.004*[#  36]
          +0.004*[#  51]+0.004*[#  67]+0.005*[# 115]+0.005*[# 211]+0.004*[#  68]
          +0.004*[#  83]+0.004*[#  99]+0.004*[# 100]+0.004*[# 131]+0.004*[# 132]
          +0.004*[# 147]+0.004*[# 195]+0.004*[# 196]+0.004*[# 259]+0.004*[# 260]
          +0.004*[# 275]+0.003*[#  20]+0.002*[# 116]+0.002*[# 212]+0.002*[# 325]
          +0.002*[# 389]+0.002*[# 421]+0.002*[# 453]+0.002*[# 677]+0.002*[# 773]
          +0.002*[#  34]+0.002*[#  66]+0.002*[#  98]+0.002*[# 130]+0.002*[# 194]
          +0.002*[# 258]+0.001*[# 114]+0.001*[# 210]+0.001*[# 242]+0.001*[# 550]
          +0.001*[#  18]+0.001*[#  82]+0.001*[# 274]+0.001*[#  49]+0.001*[# 145]
          +0.001*[# 177]+0.001*[# 243]+0.001*[# 359]+0.001*[# 615]
    |psi|^2 = 0.997
==== e(  20) =   -10.88249 eV ==== 
     psi = 0.067*[# 113]+0.067*[# 209]+0.067*[# 241]+0.060*[#  33]+0.060*[#  65]
          +0.060*[#  97]+0.060*[# 129]+0.060*[# 193]+0.060*[# 257]+0.051*[#  17]
          +0.051*[#  81]+0.051*[# 273]+0.016*[# 179]+0.013*[#   3]+0.013*[#   4]
          +0.013*[# 227]+0.013*[# 228]+0.012*[#  52]+0.012*[# 148]+0.009*[#  19]
          +0.008*[#  84]+0.008*[# 276]+0.006*[# 244]+0.004*[#  35]+0.004*[#  36]
          +0.004*[#  51]+0.004*[#  67]+0.005*[# 115]+0.005*[# 211]+0.004*[#  68]
          +0.004*[#  83]+0.004*[#  99]+0.004*[# 100]+0.004*[# 131]+0.004*[# 132]
          +0.004*[# 147]+0.004*[# 195]+0.004*[# 196]+0.004*[# 259]+0.004*[# 260]
          +0.004*[# 275]+0.003*[#  20]+0.002*[# 116]+0.002*[# 212]+0.002*[# 325]
          +0.002*[# 389]+0.002*[# 421]+0.002*[# 453]+0.002*[# 677]+0.002*[# 773]
          +0.002*[#  34]+0.002*[#  66]+0.002*[#  98]+0.002*[# 130]+0.002*[# 194]
          +0.002*[# 258]+0.001*[# 114]+0.001*[# 210]+0.001*[# 242]+0.001*[# 550]
          +0.001*[#  18]+0.001*[#  82]+0.001*[# 274]+0.001*[#  49]+0.001*[# 145]
          +0.001*[# 177]+0.001*[# 243]+0.001*[# 359]+0.001*[# 615]
    |psi|^2 = 0.997
==== e(  21) =   -10.86560 eV ==== 
     psi = 0.077*[#  49]+0.077*[# 145]+0.077*[# 177]+0.061*[#  33]+0.061*[#  65]
          +0.061*[#  97]+0.061*[# 129]+0.061*[# 193]+0.061*[# 257]+0.029*[#  17]
          +0.029*[#  81]+0.029*[# 273]+0.017*[# 163]+0.017*[# 164]+0.017*[# 243]
          +0.013*[# 113]+0.013*[# 116]+0.013*[# 209]+0.013*[# 212]+0.013*[# 241]
          +0.009*[#  19]+0.007*[#  84]+0.007*[# 276]+0.005*[# 180]+0.005*[# 227]
          +0.005*[# 228]+0.005*[#  35]+0.004*[#  51]+0.004*[#  68]+0.005*[# 131]
          +0.004*[#   3]+0.004*[#  67]+0.004*[#  83]+0.004*[#  99]+0.004*[# 100]
[...]
     Atom #   7: total charge =   3.8603, f =  0.0053, fz3=  0.0009, fxz2=  0.0006, fyz2=  0.0006, fzx2-zy2=  0.0007, fxyz=  0.0007, fx3-3xy2=  0.0006, f3yx2-y3=  0.0011, 
     Atom #   8: total charge =   3.9230, s =  1.4142, 
     Atom #   8: total charge =   3.9230, p =  2.4738, pz=  0.7863, px=  0.8448, py=  0.8427, 
     Atom #   8: total charge =   3.9230, d =  0.0298, dz2=  0.0021, dxz=  0.0049, dyz=  0.0049, dx2-y2=  0.0090, dxy=  0.0089, 
     Atom #   8: total charge =   3.9230, f =  0.0053, fz3=  0.0010, fxz2=  0.0006, fyz2=  0.0006, fzx2-zy2=  0.0007, fxyz=  0.0007, fx3-3xy2=  0.0006, f3yx2-y3=  0.0011, 
     Atom #   9: total charge =   3.8603, s =  1.3619, 
     Atom #   9: total charge =   3.8603, p =  2.4621, pz=  0.7335, px=  0.8638, py=  0.8649, 
     Atom #   9: total charge =   3.8603, d =  0.0311, dz2=  0.0028, dxz=  0.0051, dyz=  0.0052, dx2-y2=  0.0090, dxy=  0.0090, 
     Atom #   9: total charge =   3.8603, f =  0.0053, fz3=  0.0009, fxz2=  0.0006, fyz2=  0.0006, fzx2-zy2=  0.0007, fxyz=  0.0007, fx3-3xy2=  0.0006, f3yx2-y3=  0.0011, 
     Atom #  10: total charge =   3.9204, s =  1.4150, 
     Atom #  10: total charge =   3.9204, p =  2.4707, pz=  0.7750, px=  0.8503, py=  0.8453, 
     Atom #  10: total charge =   3.9204, d =  0.0295, dz2=  0.0020, dxz=  0.0048, dyz=  0.0049, dx2-y2=  0.0089, dxy=  0.0089, 
     Atom #  10: total charge =   3.9204, f =  0.0053, fz3=  0.0009, fxz2=  0.0006, fyz2=  0.0006, fzx2-zy2=  0.0007, fxyz=  0.0007, fx3-3xy2=  0.0006, f3yx2-y3=  0.0011, 
     Atom #  11: total charge =   3.8587, s =  1.3527, 
     Atom #  11: total charge =   3.8587, p =  2.4698, pz=  0.7529, px=  0.8585, py=  0.8585, 
     Atom #  11: total charge =   3.8587, d =  0.0310, dz2=  0.0026, dxz=  0.0052, dyz=  0.0052, dx2-y2=  0.0090, dxy=  0.0090, 
     Atom #  11: total charge =   3.8587, f =  0.0051, fz3=  0.0008, fxz2=  0.0006, fyz2=  0.0006, fzx2-zy2=  0.0007, fxyz=  0.0007, fx3-3xy2=  0.0006, f3yx2-y3=  0.0011, 
     Atom #  12: total charge =   3.9204, s =  1.4150, 
     Atom #  12: total charge =   3.9204, p =  2.4707, pz=  0.7750, px=  0.8428, py=  0.8528, 
     Atom #  12: total charge =   3.9204, d =  0.0295, dz2=  0.0020, dxz=  0.0049, dyz=  0.0048, dx2-y2=  0.0089, dxy=  0.0088, 
     Atom #  12: total charge =   3.9204, f =  0.0053, fz3=  0.0009, fxz2=  0.0006, fyz2=  0.0006, fzx2-zy2=  0.0007, fxyz=  0.0007, fx3-3xy2=  0.0006, f3yx2-y3=  0.0011, 
     Atom #  13: total charge =   3.8603, s =  1.3619, 
     Atom #  13: total charge =   3.8603, p =  2.4621, pz=  0.7335, px=  0.8620, py=  0.8666, 
     Atom #  13: total charge =   3.8603, d =  0.0311, dz2=  0.0028, dxz=  0.0054, dyz=  0.0049, dx2-y2=  0.0090, dxy=  0.0090, 
     Atom #  13: total charge =   3.8603, f =  0.0053, fz3=  0.0009, fxz2=  0.0006, fyz2=  0.0006, fzx2-zy2=  0.0007, fxyz=  0.0007, fx3-3xy2=  0.0006, f3yx2-y3=  0.0011, 
     Atom #  14: total charge =   3.9230, s =  1.4142, 
     Atom #  14: total charge =   3.9230, p =  2.4738, pz=  0.7863, px=  0.8448, py=  0.8427, 
     Atom #  14: total charge =   3.9230, d =  0.0298, dz2=  0.0021, dxz=  0.0049, dyz=  0.0049, dx2-y2=  0.0090, dxy=  0.0089, 
     Atom #  14: total charge =   3.9230, f =  0.0053, fz3=  0.0010, fxz2=  0.0006, fyz2=  0.0006, fzx2-zy2=  0.0007, fxyz=  0.0007, fx3-3xy2=  0.0006, f3yx2-y3=  0.0011, 
     Atom #  15: total charge =   3.8606, s =  1.3711, 
     Atom #  15: total charge =   3.8606, p =  2.4534, pz=  0.7278, px=  0.8628, py=  0.8628, 
     Atom #  15: total charge =   3.8606, d =  0.0309, dz2=  0.0024, dxz=  0.0054, dyz=  0.0054, dx2-y2=  0.0089, dxy=  0.0089, 
     Atom #  15: total charge =   3.8606, f =  0.0053, fz3=  0.0009, fxz2=  0.0006, fyz2=  0.0006, fzx2-zy2=  0.0007, fxyz=  0.0007, fx3-3xy2=  0.0006, f3yx2-y3=  0.0011, 
     Atom #  16: total charge =   3.9230, s =  1.4142, 
     Atom #  16: total charge =   3.9230, p =  2.4738, pz=  0.7863, px=  0.8416, py=  0.8458, 
     Atom #  16: total charge =   3.9230, d =  0.0298, dz2=  0.0021, dxz=  0.0049, dyz=  0.0049, dx2-y2=  0.0089, dxy=  0.0090, 
     Atom #  16: total charge =   3.9230, f =  0.0053, fz3=  0.0010, fxz2=  0.0006, fyz2=  0.0006, fzx2-zy2=  0.0007, fxyz=  0.0007, fx3-3xy2=  0.0006, f3yx2-y3=  0.0011, 
     Atom #  17: total charge =   3.8603, s =  1.3619, 
     Atom #  17: total charge =   3.8603, p =  2.4621, pz=  0.7335, px=  0.8672, py=  0.8615, 
     Atom #  17: total charge =   3.8603, d =  0.0311, dz2=  0.0028, dxz=  0.0050, dyz=  0.0053, dx2-y2=  0.0091, dxy=  0.0090, 
     Atom #  17: total charge =   3.8603, f =  0.0053, fz3=  0.0009, fxz2=  0.0006, fyz2=  0.0006, fzx2-zy2=  0.0007, fxyz=  0.0007, fx3-3xy2=  0.0006, f3yx2-y3=  0.0011, 
     Atom #  18: total charge =   3.9364, s =  1.4106, 
     Atom #  18: total charge =   3.9364, p =  2.4908, pz=  0.7982, px=  0.8430, py=  0.8496, 
     Atom #  18: total charge =   3.9364, d =  0.0298, dz2=  0.0021, dxz=  0.0049, dyz=  0.0048, dx2-y2=  0.0090, dxy=  0.0090, 
     Atom #  18: total charge =   3.9364, f =  0.0052, fz3=  0.0009, fxz2=  0.0006, fyz2=  0.0006, fzx2-zy2=  0.0007, fxyz=  0.0007, fx3-3xy2=  0.0006, f3yx2-y3=  0.0011, 
     Atom #  19: total charge =   4.7226, s =  0.7888, 
     Atom #  19: total charge =   4.7226, p =  3.1958, pz=  0.9738, px=  1.1110, py=  1.1110, 
     Atom #  19: total charge =   4.7226, d =  0.7368, dz2=  0.1255, dxz=  0.0966, dyz=  0.0966, dx2-y2=  0.2091, dxy=  0.2091, 
     Atom #  19: total charge =   4.7226, f =  0.0012, fz3=  0.0003, fxz2=  0.0003, fyz2=  0.0003, fzx2-zy2=  0.0000, fxyz=  0.0000, fx3-3xy2=  0.0001, f3yx2-y3=  0.0002, 
     Atom #  20: total charge =   3.3617, s =  0.5696, 
     Atom #  20: total charge =   3.3617, p =  1.6485, pz=  0.4498, px=  0.5995, py=  0.5991, 
     Atom #  20: total charge =   3.3617, d =  1.1300, dz2=  0.0946, dxz=  0.1820, dyz=  0.1854, dx2-y2=  0.3343, dxy=  0.3338, 
     Atom #  20: total charge =   3.3617, f =  0.0136, fz3=  0.0012, fxz2=  0.0019, fyz2=  0.0019, fzx2-zy2=  0.0013, fxyz=  0.0013, fx3-3xy2=  0.0035, f3yx2-y3=  0.0027, 
     Atom #  21: total charge =   4.7129, s =  0.7886, 
     Atom #  21: total charge =   4.7129, p =  3.1992, pz=  0.9793, px=  1.1102, py=  1.1097, 
     Atom #  21: total charge =   4.7129, d =  0.7240, dz2=  0.1058, dxz=  0.0963, dyz=  0.1028, dx2-y2=  0.2097, dxy=  0.2095, 
     Atom #  21: total charge =   4.7129, f =  0.0012, fz3=  0.0003, fxz2=  0.0003, fyz2=  0.0003, fzx2-zy2=  0.0000, fxyz=  0.0000, fx3-3xy2=  0.0001, f3yx2-y3=  0.0002, 
     Atom #  22: total charge =   3.3798, s =  0.5689, 
     Atom #  22: total charge =   3.3798, p =  1.6534, pz=  0.4542, px=  0.6000, py=  0.5991, 
     Atom #  22: total charge =   3.3798, d =  1.1438, dz2=  0.1048, dxz=  0.1845, dyz=  0.1863, dx2-y2=  0.3344, dxy=  0.3337, 
     Atom #  22: total charge =   3.3798, f =  0.0137, fz3=  0.0012, fxz2=  0.0019, fyz2=  0.0019, fzx2-zy2=  0.0013, fxyz=  0.0013, fx3-3xy2=  0.0034, f3yx2-y3=  0.0027, 
     Atom #  23: total charge =   4.6990, s =  0.7877, 
     Atom #  23: total charge =   4.6990, p =  3.2003, pz=  0.9821, px=  1.1094, py=  1.1088, 
     Atom #  23: total charge =   4.6990, d =  0.7098, dz2=  0.0873, dxz=  0.0968, dyz=  0.1059, dx2-y2=  0.2095, dxy=  0.2104, 
     Atom #  23: total charge =   4.6990, f =  0.0012, fz3=  0.0003, fxz2=  0.0003, fyz2=  0.0003, fzx2-zy2=  0.0000, fxyz=  0.0000, fx3-3xy2=  0.0001, f3yx2-y3=  0.0002, 
     Atom #  24: total charge =   3.3798, s =  0.5689, 
     Atom #  24: total charge =   3.3798, p =  1.6534, pz=  0.4542, px=  0.5997, py=  0.5995, 
     Atom #  24: total charge =   3.3798, d =  1.1438, dz2=  0.1048, dxz=  0.1871, dyz=  0.1838, dx2-y2=  0.3340, dxy=  0.3341, 
     Atom #  24: total charge =   3.3798, f =  0.0137, fz3=  0.0012, fxz2=  0.0019, fyz2=  0.0019, fzx2-zy2=  0.0013, fxyz=  0.0013, fx3-3xy2=  0.0034, f3yx2-y3=  0.0027, 
     Atom #  25: total charge =   4.7129, s =  0.7886, 
     Atom #  25: total charge =   4.7129, p =  3.1992, pz=  0.9793, px=  1.1103, py=  1.1096, 
     Atom #  25: total charge =   4.7129, d =  0.7240, dz2=  0.1058, dxz=  0.0976, dyz=  0.1015, dx2-y2=  0.2091, dxy=  0.2100, 
     Atom #  25: total charge =   4.7129, f =  0.0012, fz3=  0.0003, fxz2=  0.0003, fyz2=  0.0003, fzx2-zy2=  0.0000, fxyz=  0.0000, fx3-3xy2=  0.0001, f3yx2-y3=  0.0002, 
     Atom #  26: total charge =   3.3617, s =  0.5696, 
     Atom #  26: total charge =   3.3617, p =  1.6485, pz=  0.4498, px=  0.5992, py=  0.5994, 
     Atom #  26: total charge =   3.3617, d =  1.1300, dz2=  0.0946, dxz=  0.1845, dyz=  0.1829, dx2-y2=  0.3339, dxy=  0.3342, 
     Atom #  26: total charge =   3.3617, f =  0.0136, fz3=  0.0012, fxz2=  0.0019, fyz2=  0.0019, fzx2-zy2=  0.0013, fxyz=  0.0013, fx3-3xy2=  0.0035, f3yx2-y3=  0.0027, 
     Atom #  27: total charge =   4.7129, s =  0.7886, 
     Atom #  27: total charge =   4.7129, p =  3.1992, pz=  0.9793, px=  1.1094, py=  1.1105, 
     Atom #  27: total charge =   4.7129, d =  0.7240, dz2=  0.1058, dxz=  0.1047, dyz=  0.0944, dx2-y2=  0.2099, dxy=  0.2092, 
     Atom #  27: total charge =   4.7129, f =  0.0012, fz3=  0.0003, fxz2=  0.0003, fyz2=  0.0003, fzx2-zy2=  0.0000, fxyz=  0.0000, fx3-3xy2=  0.0001, f3yx2-y3=  0.0002, 
     Atom #  28: total charge =   3.3569, s =  0.5701, 
     Atom #  28: total charge =   3.3569, p =  1.6495, pz=  0.4503, px=  0.5996, py=  0.5996, 
     Atom #  28: total charge =   3.3569, d =  1.1238, dz2=  0.0876, dxz=  0.1825, dyz=  0.1852, dx2-y2=  0.3344, dxy=  0.3342, 
     Atom #  28: total charge =   3.3569, f =  0.0136, fz3=  0.0011, fxz2=  0.0019, fyz2=  0.0019, fzx2-zy2=  0.0013, fxyz=  0.0013, fx3-3xy2=  0.0035, f3yx2-y3=  0.0027, 
     Atom #  29: total charge =   4.7129, s =  0.7886, 
     Atom #  29: total charge =   4.7129, p =  3.1992, pz=  0.9793, px=  1.1102, py=  1.1097, 
     Atom #  29: total charge =   4.7129, d =  0.7240, dz2=  0.1058, dxz=  0.0963, dyz=  0.1028, dx2-y2=  0.2097, dxy=  0.2095, 
     Atom #  29: total charge =   4.7129, f =  0.0012, fz3=  0.0003, fxz2=  0.0003, fyz2=  0.0003, fzx2-zy2=  0.0000, fxyz=  0.0000, fx3-3xy2=  0.0001, f3yx2-y3=  0.0002, 
     Atom #  30: total charge =   3.3798, s =  0.5689, 
     Atom #  30: total charge =   3.3798, p =  1.6534, pz=  0.4542, px=  0.6000, py=  0.5991, 
     Atom #  30: total charge =   3.3798, d =  1.1438, dz2=  0.1048, dxz=  0.1845, dyz=  0.1863, dx2-y2=  0.3344, dxy=  0.3337, 
     Atom #  30: total charge =   3.3798, f =  0.0137, fz3=  0.0012, fxz2=  0.0019, fyz2=  0.0019, fzx2-zy2=  0.0013, fxyz=  0.0013, fx3-3xy2=  0.0034, f3yx2-y3=  0.0027, 
     Atom #  31: total charge =   4.6913, s =  0.7868, 
     Atom #  31: total charge =   4.6913, p =  3.1991, pz=  0.9812, px=  1.1092, py=  1.1087, 
     Atom #  31: total charge =   4.6913, d =  0.7041, dz2=  0.0800, dxz=  0.0977, dyz=  0.1080, dx2-y2=  0.2090, dxy=  0.2094, 
     Atom #  31: total charge =   4.6913, f =  0.0012, fz3=  0.0003, fxz2=  0.0003, fyz2=  0.0003, fzx2-zy2=  0.0000, fxyz=  0.0000, fx3-3xy2=  0.0001, f3yx2-y3=  0.0002, 
     Atom #  32: total charge =   3.4042, s =  0.5676, 
     Atom #  32: total charge =   3.4042, p =  1.6579, pz=  0.4592, px=  0.5994, py=  0.5994, 
     Atom #  32: total charge =   3.4042, d =  1.1649, dz2=  0.1254, dxz=  0.1860, dyz=  0.1860, dx2-y2=  0.3337, dxy=  0.3337, 
     Atom #  32: total charge =   3.4042, f =  0.0137, fz3=  0.0012, fxz2=  0.0019, fyz2=  0.0019, fzx2-zy2=  0.0013, fxyz=  0.0013, fx3-3xy2=  0.0034, f3yx2-y3=  0.0028, 
     Atom #  33: total charge =   4.6913, s =  0.7868, 
     Atom #  33: total charge =   4.6913, p =  3.1991, pz=  0.9812, px=  1.1089, py=  1.1091, 
     Atom #  33: total charge =   4.6913, d =  0.7041, dz2=  0.0800, dxz=  0.1054, dyz=  0.1003, dx2-y2=  0.2093, dxy=  0.2091, 
     Atom #  33: total charge =   4.6913, f =  0.0012, fz3=  0.0003, fxz2=  0.0003, fyz2=  0.0003, fzx2-zy2=  0.0000, fxyz=  0.0000, fx3-3xy2=  0.0001, f3yx2-y3=  0.0002, 
     Atom #  34: total charge =   3.3798, s =  0.5689, 
     Atom #  34: total charge =   3.3798, p =  1.6534, pz=  0.4542, px=  0.5990, py=  0.6002, 
     Atom #  34: total charge =   3.3798, d =  1.1438, dz2=  0.1048, dxz=  0.1847, dyz=  0.1862, dx2-y2=  0.3337, dxy=  0.3344, 
     Atom #  34: total charge =   3.3798, f =  0.0137, fz3=  0.0012, fxz2=  0.0019, fyz2=  0.0019, fzx2-zy2=  0.0013, fxyz=  0.0013, fx3-3xy2=  0.0034, f3yx2-y3=  0.0027, 
     Atom #  35: total charge =   4.6990, s =  0.7877, 
     Atom #  35: total charge =   4.6990, p =  3.2003, pz=  0.9821, px=  1.1085, py=  1.1096, 
     Atom #  35: total charge =   4.6990, d =  0.7098, dz2=  0.0873, dxz=  0.1104, dyz=  0.0923, dx2-y2=  0.2108, dxy=  0.2090, 
     Atom #  35: total charge =   4.6990, f =  0.0012, fz3=  0.0003, fxz2=  0.0003, fyz2=  0.0003, fzx2-zy2=  0.0000, fxyz=  0.0000, fx3-3xy2=  0.0001, f3yx2-y3=  0.0002, 
     Atom #  36: total charge =   3.3514, s =  0.5705, 
     Atom #  36: total charge =   3.3514, p =  1.6497, pz=  0.4502, px=  0.5994, py=  0.6001, 
     Atom #  36: total charge =   3.3514, d =  1.1177, dz2=  0.0818, dxz=  0.1822, dyz=  0.1848, dx2-y2=  0.3344, dxy=  0.3345, 
     Atom #  36: total charge =   3.3514, f =  0.0136, fz3=  0.0011, fxz2=  0.0019, fyz2=  0.0019, fzx2-zy2=  0.0013, fxyz=  0.0013, fx3-3xy2=  0.0034, f3yx2-y3=  0.0027, 
     Atom #  37: total charge =   4.7056, s =  0.7884, 
     Atom #  37: total charge =   4.7056, p =  3.1998, pz=  0.9822, px=  1.1085, py=  1.1091, 
     Atom #  37: total charge =   4.7056, d =  0.7163, dz2=  0.0960, dxz=  0.1017, dyz=  0.0973, dx2-y2=  0.2108, dxy=  0.2105, 
     Atom #  37: total charge =   4.7056, f =  0.0012, fz3=  0.0003, fxz2=  0.0003, fyz2=  0.0003, fzx2-zy2=  0.0000, fxyz=  0.0000, fx3-3xy2=  0.0001, f3yx2-y3=  0.0002, 
     Atom #  38: total charge =   3.3514, s =  0.5705, 
     Atom #  38: total charge =   3.3514, p =  1.6497, pz=  0.4502, px=  0.5999, py=  0.5995, 
     Atom #  38: total charge =   3.3514, d =  1.1177, dz2=  0.0818, dxz=  0.1841, dyz=  0.1829, dx2-y2=  0.3344, dxy=  0.3344, 
     Atom #  38: total charge =   3.3514, f =  0.0136, fz3=  0.0011, fxz2=  0.0019, fyz2=  0.0019, fzx2-zy2=  0.0013, fxyz=  0.0013, fx3-3xy2=  0.0034, f3yx2-y3=  0.0027, 
     Atom #  39: total charge =   4.6990, s =  0.7877, 
     Atom #  39: total charge =   4.6990, p =  3.2003, pz=  0.9821, px=  1.1094, py=  1.1088, 
     Atom #  39: total charge =   4.6990, d =  0.7098, dz2=  0.0873, dxz=  0.0968, dyz=  0.1059, dx2-y2=  0.2095, dxy=  0.2104, 
     Atom #  39: total charge =   4.6990, f =  0.0012, fz3=  0.0003, fxz2=  0.0003, fyz2=  0.0003, fzx2-zy2=  0.0000, fxyz=  0.0000, fx3-3xy2=  0.0001, f3yx2-y3=  0.0002, 
     Atom #  40: total charge =   3.3798, s =  0.5689, 
     Atom #  40: total charge =   3.3798, p =  1.6534, pz=  0.4542, px=  0.5997, py=  0.5995, 
     Atom #  40: total charge =   3.3798, d =  1.1438, dz2=  0.1048, dxz=  0.1871, dyz=  0.1838, dx2-y2=  0.3340, dxy=  0.3341, 
     Atom #  40: total charge =   3.3798, f =  0.0137, fz3=  0.0012, fxz2=  0.0019, fyz2=  0.0019, fzx2-zy2=  0.0013, fxyz=  0.0013, fx3-3xy2=  0.0034, f3yx2-y3=  0.0027, 
     Atom #  41: total charge =   4.6913, s =  0.7868, 
     Atom #  41: total charge =   4.6913, p =  3.1991, pz=  0.9812, px=  1.1089, py=  1.1091, 
     Atom #  41: total charge =   4.6913, d =  0.7041, dz2=  0.0800, dxz=  0.1054, dyz=  0.1003, dx2-y2=  0.2093, dxy=  0.2091, 
     Atom #  41: total charge =   4.6913, f =  0.0012, fz3=  0.0003, fxz2=  0.0003, fyz2=  0.0003, fzx2-zy2=  0.0000, fxyz=  0.0000, fx3-3xy2=  0.0001, f3yx2-y3=  0.0002, 
     Atom #  42: total charge =   3.3798, s =  0.5689, 
     Atom #  42: total charge =   3.3798, p =  1.6534, pz=  0.4542, px=  0.5990, py=  0.6002, 
     Atom #  42: total charge =   3.3798, d =  1.1438, dz2=  0.1048, dxz=  0.1847, dyz=  0.1862, dx2-y2=  0.3337, dxy=  0.3344, 
     Atom #  42: total charge =   3.3798, f =  0.0137, fz3=  0.0012, fxz2=  0.0019, fyz2=  0.0019, fzx2-zy2=  0.0013, fxyz=  0.0013, fx3-3xy2=  0.0034, f3yx2-y3=  0.0027, 
     Atom #  43: total charge =   4.7129, s =  0.7886, 
     Atom #  43: total charge =   4.7129, p =  3.1992, pz=  0.9793, px=  1.1094, py=  1.1105, 
     Atom #  43: total charge =   4.7129, d =  0.7240, dz2=  0.1058, dxz=  0.1047, dyz=  0.0944, dx2-y2=  0.2099, dxy=  0.2092, 
     Atom #  43: total charge =   4.7129, f =  0.0012, fz3=  0.0003, fxz2=  0.0003, fyz2=  0.0003, fzx2-zy2=  0.0000, fxyz=  0.0000, fx3-3xy2=  0.0001, f3yx2-y3=  0.0002, 
     Atom #  44: total charge =   3.3569, s =  0.5701, 
     Atom #  44: total charge =   3.3569, p =  1.6495, pz=  0.4503, px=  0.5996, py=  0.5996, 
     Atom #  44: total charge =   3.3569, d =  1.1238, dz2=  0.0876, dxz=  0.1825, dyz=  0.1852, dx2-y2=  0.3344, dxy=  0.3342, 
     Atom #  44: total charge =   3.3569, f =  0.0136, fz3=  0.0011, fxz2=  0.0019, fyz2=  0.0019, fzx2-zy2=  0.0013, fxyz=  0.0013, fx3-3xy2=  0.0035, f3yx2-y3=  0.0027, 
     Atom #  45: total charge =   4.7056, s =  0.7884, 
     Atom #  45: total charge =   4.7056, p =  3.1998, pz=  0.9822, px=  1.1085, py=  1.1091, 
     Atom #  45: total charge =   4.7056, d =  0.7163, dz2=  0.0960, dxz=  0.1017, dyz=  0.0973, dx2-y2=  0.2108, dxy=  0.2105, 
     Atom #  45: total charge =   4.7056, f =  0.0012, fz3=  0.0003, fxz2=  0.0003, fyz2=  0.0003, fzx2-zy2=  0.0000, fxyz=  0.0000, fx3-3xy2=  0.0001, f3yx2-y3=  0.0002, 
     Atom #  46: total charge =   3.3514, s =  0.5705, 
     Atom #  46: total charge =   3.3514, p =  1.6497, pz=  0.4502, px=  0.5999, py=  0.5995, 
     Atom #  46: total charge =   3.3514, d =  1.1177, dz2=  0.0818, dxz=  0.1841, dyz=  0.1829, dx2-y2=  0.3344, dxy=  0.3344, 
     Atom #  46: total charge =   3.3514, f =  0.0136, fz3=  0.0011, fxz2=  0.0019, fyz2=  0.0019, fzx2-zy2=  0.0013, fxyz=  0.0013, fx3-3xy2=  0.0034, f3yx2-y3=  0.0027, 
     Atom #  47: total charge =   4.7056, s =  0.7884, 
     Atom #  47: total charge =   4.7056, p =  3.1998, pz=  0.9822, px=  1.1093, py=  1.1083, 
     Atom #  47: total charge =   4.7056, d =  0.7163, dz2=  0.0960, dxz=  0.0951, dyz=  0.1040, dx2-y2=  0.2103, dxy=  0.2110, 
     Atom #  47: total charge =   4.7056, f =  0.0012, fz3=  0.0003, fxz2=  0.0003, fyz2=  0.0003, fzx2-zy2=  0.0000, fxyz=  0.0000, fx3-3xy2=  0.0001, f3yx2-y3=  0.0002, 
     Atom #  48: total charge =   3.3569, s =  0.5701, 
     Atom #  48: total charge =   3.3569, p =  1.6495, pz=  0.4503, px=  0.5996, py=  0.5996, 
     Atom #  48: total charge =   3.3569, d =  1.1238, dz2=  0.0876, dxz=  0.1865, dyz=  0.1812, dx2-y2=  0.3341, dxy=  0.3344, 
     Atom #  48: total charge =   3.3569, f =  0.0136, fz3=  0.0011, fxz2=  0.0019, fyz2=  0.0019, fzx2-zy2=  0.0013, fxyz=  0.0013, fx3-3xy2=  0.0035, f3yx2-y3=  0.0027, 
     Atom #  49: total charge =   4.7129, s =  0.7886, 
     Atom #  49: total charge =   4.7129, p =  3.1992, pz=  0.9793, px=  1.1103, py=  1.1096, 
     Atom #  49: total charge =   4.7129, d =  0.7240, dz2=  0.1058, dxz=  0.0976, dyz=  0.1015, dx2-y2=  0.2091, dxy=  0.2100, 
     Atom #  49: total charge =   4.7129, f =  0.0012, fz3=  0.0003, fxz2=  0.0003, fyz2=  0.0003, fzx2-zy2=  0.0000, fxyz=  0.0000, fx3-3xy2=  0.0001, f3yx2-y3=  0.0002, 
     Atom #  50: total charge =   3.3617, s =  0.5696, 
     Atom #  50: total charge =   3.3617, p =  1.6485, pz=  0.4498, px=  0.5992, py=  0.5994, 
     Atom #  50: total charge =   3.3617, d =  1.1300, dz2=  0.0946, dxz=  0.1845, dyz=  0.1829, dx2-y2=  0.3339, dxy=  0.3342, 
     Atom #  50: total charge =   3.3617, f =  0.0136, fz3=  0.0012, fxz2=  0.0019, fyz2=  0.0019, fzx2-zy2=  0.0013, fxyz=  0.0013, fx3-3xy2=  0.0035, f3yx2-y3=  0.0027, 
     Spilling Parameter:   0.0037

     PROJWFC      :  27m43.50s CPU  27m51.25s WALL


   This run was terminated on:   6:13: 3  13Apr2020            

=------------------------------------------------------------------------------=
   JOB DONE.
=------------------------------------------------------------------------------=
