
     Program PWSCF v.7.0 starts on  4Jan2023 at 23:35:48 

     This program is part of the open-source Quantum ESPRESSO suite
     for quantum simulation of materials; please cite
         "P. Giannozzi et al., J. Phys.:Condens. Matter 21 395502 (2009);
         "P. Giannozzi et al., J. Phys.:Condens. Matter 29 465901 (2017);
         "P. Giannozzi et al., J. Chem. Phys. 152 154105 (2020);
          URL http://www.quantum-espresso.org", 
     in publications or presentations arising from this work. More details at
     http://www.quantum-espresso.org/quote

     Serial multi-threaded version, running on    4 processor cores
     4650 MiB available memory on the printing compute node when the environment starts

     Waiting for input...
     Reading input from standard input

     Current dimensions of program PWSCF are:
     Max number of different atomic species (ntypx) = 10
     Max number of k-points (npk) =  40000
     Max angular momentum in pseudopotentials (lmaxx) =  4

     Atomic positions and unit cell read from directory:
     ./work/graphene.save/


     G-vector sticks info
     --------------------
     sticks:   dense  smooth     PW     G-vecs:    dense   smooth      PW
     Sum         211     169     61                10409     7409    1501

     Using Slab Decomposition



     bravais-lattice index     =            4
     lattice parameter (alat)  =       4.6020  a.u.
     unit-cell volume          =     337.6218 (a.u.)^3
     number of atoms/cell      =            2
     number of atomic types    =            1
     number of electrons       =         8.00
     number of Kohn-Sham states=           16
     kinetic-energy cutoff     =      30.0000  Ry
     charge density cutoff     =     150.0000  Ry
     Exchange-correlation= PBE
                           (   1   4   3   4   0   0   0)

     celldm(1)=   4.602000  celldm(2)=   0.000000  celldm(3)=   4.000000
     celldm(4)=   0.000000  celldm(5)=   0.000000  celldm(6)=   0.000000

     crystal axes: (cart. coord. in units of alat)
               a(1) = (   1.000000   0.000000   0.000000 )  
               a(2) = (  -0.500000   0.866025   0.000000 )  
               a(3) = (   0.000000   0.000000   4.000000 )  

     reciprocal axes: (cart. coord. in units 2 pi/alat)
               b(1) = (  1.000000  0.577350 -0.000000 )  
               b(2) = (  0.000000  1.154701  0.000000 )  
               b(3) = (  0.000000 -0.000000  0.250000 )  


     PseudoPot. # 1 for C  read from file:
     ./pseudo/C.pbe-n-rrkjus_psl.1.0.0.UPF
     MD5 check sum: 1fdd950c42eb37d8afe3dd2f8d12311e
     Pseudo is Ultrasoft + core correction, Zval =  4.0
     Generated using &quot;atomic&quot; code by A. Dal Corso  v.6.3MaX
     Using radial grid of 1073 points,  4 beta functions with: 
                l(1) =   0
                l(2) =   0
                l(3) =   1
                l(4) =   1
     Q(r) pseudized with 0 coefficients 


     atomic species   valence    mass     pseudopotential
        C              4.00    12.01070     C ( 1.00)

     24 Sym. Ops., with inversion, found (12 have fractional translation)



   Cartesian axes

     site n.     atom                  positions (alat units)
         1           C   tau(   1) = (   0.0000000   0.0000000   0.0000000  )
         2           C   tau(   2) = (   0.0000000   0.5773503   0.0000000  )

     number of k points=    61  Methfessel-Paxton smearing, width (Ry)=  0.0100
                       cart. coord. in units 2pi/alat
        k(    1) = (   0.0000000   0.0000000   0.0000000), wk =   0.0327869
        k(    2) = (   0.0333333   0.0000000   0.0000000), wk =   0.0327869
        k(    3) = (   0.0666667   0.0000000   0.0000000), wk =   0.0327869
        k(    4) = (   0.1000000   0.0000000   0.0000000), wk =   0.0327869
        k(    5) = (   0.1333333   0.0000000   0.0000000), wk =   0.0327869
        k(    6) = (   0.1666667   0.0000000   0.0000000), wk =   0.0327869
        k(    7) = (   0.2000000   0.0000000   0.0000000), wk =   0.0327869
        k(    8) = (   0.2333333   0.0000000   0.0000000), wk =   0.0327869
        k(    9) = (   0.2666667   0.0000000   0.0000000), wk =   0.0327869
        k(   10) = (   0.3000000   0.0000000   0.0000000), wk =   0.0327869
        k(   11) = (   0.3333333   0.0000000   0.0000000), wk =   0.0327869
        k(   12) = (   0.3666667   0.0000000   0.0000000), wk =   0.0327869
        k(   13) = (   0.4000000   0.0000000   0.0000000), wk =   0.0327869
        k(   14) = (   0.4333333   0.0000000   0.0000000), wk =   0.0327869
        k(   15) = (   0.4666667   0.0000000   0.0000000), wk =   0.0327869
        k(   16) = (   0.5000000   0.0000000   0.0000000), wk =   0.0327869
        k(   17) = (   0.5333333   0.0000000   0.0000000), wk =   0.0327869
        k(   18) = (   0.5666667   0.0000000   0.0000000), wk =   0.0327869
        k(   19) = (   0.6000000   0.0000000   0.0000000), wk =   0.0327869
        k(   20) = (   0.6333333   0.0000000   0.0000000), wk =   0.0327869
        k(   21) = (   0.6666667   0.0000000   0.0000000), wk =   0.0327869
        k(   22) = (   0.6583333   0.0144338   0.0000000), wk =   0.0327869
        k(   23) = (   0.6500000   0.0288675   0.0000000), wk =   0.0327869
        k(   24) = (   0.6416667   0.0433013   0.0000000), wk =   0.0327869
        k(   25) = (   0.6333333   0.0577350   0.0000000), wk =   0.0327869
        k(   26) = (   0.6250000   0.0721688   0.0000000), wk =   0.0327869
        k(   27) = (   0.6166667   0.0866025   0.0000000), wk =   0.0327869
        k(   28) = (   0.6083333   0.1010363   0.0000000), wk =   0.0327869
        k(   29) = (   0.6000000   0.1154700   0.0000000), wk =   0.0327869
        k(   30) = (   0.5916667   0.1299038   0.0000000), wk =   0.0327869
        k(   31) = (   0.5833333   0.1443375   0.0000000), wk =   0.0327869
        k(   32) = (   0.5750000   0.1587713   0.0000000), wk =   0.0327869
        k(   33) = (   0.5666667   0.1732050   0.0000000), wk =   0.0327869
        k(   34) = (   0.5583333   0.1876388   0.0000000), wk =   0.0327869
        k(   35) = (   0.5500000   0.2020725   0.0000000), wk =   0.0327869
        k(   36) = (   0.5416667   0.2165063   0.0000000), wk =   0.0327869
        k(   37) = (   0.5333333   0.2309400   0.0000000), wk =   0.0327869
        k(   38) = (   0.5250000   0.2453738   0.0000000), wk =   0.0327869
        k(   39) = (   0.5166667   0.2598075   0.0000000), wk =   0.0327869
        k(   40) = (   0.5083333   0.2742413   0.0000000), wk =   0.0327869
        k(   41) = (   0.5000000   0.2886750   0.0000000), wk =   0.0327869
        k(   42) = (   0.4750000   0.2742412   0.0000000), wk =   0.0327869
        k(   43) = (   0.4500000   0.2598075   0.0000000), wk =   0.0327869
        k(   44) = (   0.4250000   0.2453738   0.0000000), wk =   0.0327869
        k(   45) = (   0.4000000   0.2309400   0.0000000), wk =   0.0327869
        k(   46) = (   0.3750000   0.2165063   0.0000000), wk =   0.0327869
        k(   47) = (   0.3500000   0.2020725   0.0000000), wk =   0.0327869
        k(   48) = (   0.3250000   0.1876388   0.0000000), wk =   0.0327869
        k(   49) = (   0.3000000   0.1732050   0.0000000), wk =   0.0327869
        k(   50) = (   0.2750000   0.1587713   0.0000000), wk =   0.0327869
        k(   51) = (   0.2500000   0.1443375   0.0000000), wk =   0.0327869
        k(   52) = (   0.2250000   0.1299037   0.0000000), wk =   0.0327869
        k(   53) = (   0.2000000   0.1154700   0.0000000), wk =   0.0327869
        k(   54) = (   0.1750000   0.1010362   0.0000000), wk =   0.0327869
        k(   55) = (   0.1500000   0.0866025   0.0000000), wk =   0.0327869
        k(   56) = (   0.1250000   0.0721688   0.0000000), wk =   0.0327869
        k(   57) = (   0.1000000   0.0577350   0.0000000), wk =   0.0327869
        k(   58) = (   0.0750000   0.0433012   0.0000000), wk =   0.0327869
        k(   59) = (   0.0500000   0.0288675   0.0000000), wk =   0.0327869
        k(   60) = (   0.0250000   0.0144337   0.0000000), wk =   0.0327869
        k(   61) = (   0.0000000   0.0000000   0.0000000), wk =   0.0327869

     Dense  grid:    10409 G-vectors     FFT dimensions: (  18,  18,  72)

     Smooth grid:     7409 G-vectors     FFT dimensions: (  18,  18,  72)

     Estimated max dynamical RAM per process >      24.87 MB

     Check: negative core charge=   -0.000047

     The potential is recalculated from file :
     ./work/graphene.save/charge-density


     negative rho (up, down):  1.648E-03 0.000E+00
     Starting wfcs are    8 randomized atomic wfcs +    8 random wfcs

     Band Structure Calculation
     Davidson diagonalization with overlap

     ethr =  1.25E-10,  avg # of iterations = 35.8

     total cpu time spent up to now is       16.4 secs

     End of band structure calculation

          k = 0.0000 0.0000 0.0000 (   915 PWs)   bands (ev):

   -20.0411  -8.0648  -3.2316  -3.2316   2.5211   4.3067   5.2735   8.4130
     8.4130  10.4357  11.7078  12.4137  13.1412  19.9536  22.7694  23.0228

          k = 0.0333 0.0000 0.0000 (   904 PWs)   bands (ev):

   -20.0210  -8.0398  -3.3142  -3.2768   2.5488   4.3341   5.3004   8.4330
     8.5097  10.4616  11.6350  12.4413  13.1746  19.9710  22.8403  23.0460

          k = 0.0667 0.0000 0.0000 (   908 PWs)   bands (ev):

   -19.9607  -7.9678  -3.5520  -3.4108   2.6317   4.4160   5.3812   8.4684
     8.7582  10.5383  11.4243  12.5235  13.2783  20.0195  23.0455  23.1155

          k = 0.1000 0.0000 0.0000 (   908 PWs)   bands (ev):

   -19.8601  -7.8488  -3.9205  -3.6292   2.7700   4.5521   5.5161   8.5408
     9.1400  10.6654  11.0792  12.6599  13.4623  20.0917  23.2256  23.3737

          k = 0.1333 0.0000 0.0000 (   910 PWs)   bands (ev):

   -19.7196  -7.6796  -4.3931  -3.9238   2.9636   4.7431   5.7050   8.6457
     9.5977  10.6169  10.8433  12.8494  13.7434  20.1725  23.3811  23.7869

          k = 0.1667 0.0000 0.0000 (   924 PWs)   bands (ev):

   -19.5393  -7.4642  -4.9452  -4.2877   3.2126   4.9879   5.9482   8.7884
    10.0497  10.0821  11.0695  13.0912  14.1383  20.2200  23.5735  24.1953

          k = 0.2000 0.0000 0.0000 (   926 PWs)   bands (ev):

   -19.3194  -7.2006  -5.5393  -4.7077   3.5168   5.2868   6.2457   8.9773
     9.4088  10.5463  11.3430  13.3843  14.6661  20.1498  23.3210  23.7923

          k = 0.2333 0.0000 0.0000 (   936 PWs)   bands (ev):

   -19.0603  -6.8917  -6.1609  -5.1743   3.8764   5.6388   6.5975   8.7080
     9.2089  10.9585  11.6597  13.7280  15.3204  19.8254  22.7941  23.9956

          k = 0.2667 0.0000 0.0000 (   944 PWs)   bands (ev):

   -18.7624  -6.7910  -6.5384  -5.6755   4.2910   6.0434   7.0034   7.9690
     9.4847  11.3107  12.0141  14.1213  16.0857  19.2117  22.6566  23.8869

          k = 0.3000 0.0000 0.0000 (   942 PWs)   bands (ev):

   -18.4261  -7.4195  -6.1990  -6.1413   4.7606   6.4994   7.2068   7.4632
     9.8083  11.6190  12.3959  14.5633  16.9264  18.4461  22.7682  23.0883

          k = 0.3333 0.0000 0.0000 (   936 PWs)   bands (ev):

   -18.0522  -8.0392  -6.7377  -5.7000   5.2850   6.4366   7.0055   7.9766
    10.1714  11.8935  12.7860  15.0526  17.6729  17.7792  22.0928  22.4255

          k = 0.3667 0.0000 0.0000 (   934 PWs)   bands (ev):

   -17.6413  -8.6444  -7.2804  -5.2226   5.6641   5.8639   7.5579   8.5428
    10.5747  12.1398  13.1409  15.5867  16.9971  18.5528  21.0872  21.4959

          k = 0.4000 0.0000 0.0000 (   944 PWs)   bands (ev):

   -17.1953  -9.2321  -7.8226  -4.7126   4.8983   6.4965   8.1512   9.1603
    11.0145  12.3671  13.3779  16.1605  16.5325  18.9979  20.1150  20.8487

          k = 0.4333 0.0000 0.0000 (   944 PWs)   bands (ev):

   -16.7147  -9.7936  -8.3538  -4.1705   4.1517   7.1826   8.7763   9.8282
    11.4801  12.5783  13.3959  16.4035  16.7671  18.7561  19.1935  20.2975

          k = 0.4667 0.0000 0.0000 (   944 PWs)   bands (ev):

   -16.2023 -10.3317  -8.8690  -3.6021   3.4325   7.9209   9.4123  10.5432
    11.9640  12.7761  13.2033  16.6209  17.3838  18.1053  18.3400  19.4376

          k = 0.5000 0.0000 0.0000 (   940 PWs)   bands (ev):

   -15.6597 -10.8412  -9.3627  -3.0150   2.7400   8.7096  10.0102  11.3001
    12.4501  12.9535  12.9655  17.0486  17.3933  17.4872  18.0553  18.6182

          k = 0.5333 0.0000 0.0000 (   946 PWs)   bands (ev):

   -15.0938 -11.3216  -9.8300  -2.4181   2.0799   9.5451  10.4628  12.0842
    12.8976  12.9157  13.0961  16.7196  16.7972  17.5015  17.8440  18.5251

          k = 0.5667 0.0000 0.0000 (   942 PWs)   bands (ev):

   -14.5094 -11.7705 -10.2589  -1.8211   1.4552  10.4212  10.6464  12.8439
    13.1811  13.1836  13.3523  16.1232  16.1968  17.1178  17.6847  18.5241

          k = 0.6000 0.0000 0.0000 (   940 PWs)   bands (ev):

   -13.9236 -12.1895 -10.6335  -1.2362   0.8696  10.6140  11.3219  13.1827
    13.3190  13.7874  13.9089  15.6309  15.7499  16.4417  17.4431  18.0956

          k = 0.6333 0.0000 0.0000 (   930 PWs)   bands (ev):

   -13.3692 -12.5760 -10.9217  -0.6819   0.3265  10.5269  12.2003  13.0667
    13.3697  14.5458  14.5662  15.2554  15.5093  15.8172  17.0736  17.6975

          k = 0.6667 0.0000 0.0000 (   936 PWs)   bands (ev):

   -12.9309 -12.9309 -11.0464  -0.1742  -0.1742  10.4858  12.8369  12.8369
    13.2614  14.9732  14.9732  15.2451  15.2451  15.4595  16.8647  17.6063

          k = 0.6583 0.0144 0.0000 (   934 PWs)   bands (ev):

   -13.0951 -12.7961 -11.0073  -0.4095   0.0566  10.4979  12.6918  12.8427
    13.3042  14.8515  14.9788  15.0675  15.4459  15.4829  16.9503  17.5321

          k = 0.6500 0.0289 0.0000 (   934 PWs)   bands (ev):

   -13.2518 -12.7329 -10.8847  -0.6324   0.2708  10.5359  12.5341  12.7100
    13.2865  14.7259  14.7339  15.0538  15.4960  15.6520  17.2132  17.4949

          k = 0.6417 0.0433 0.0000 (   934 PWs)   bands (ev):

   -13.4002 -12.7325 -10.6889  -0.8439   0.4665  10.6005  12.3700  12.5408
    13.1171  14.4865  14.6167  14.9404  15.4457  16.0034  17.4928  17.6010

          k = 0.6333 0.0577 0.0000 (   948 PWs)   bands (ev):

   -13.5411 -12.7771 -10.4424  -1.0475   0.6416  10.6914  12.2032  12.3587
    12.8244  14.2600  14.4964  14.7932  15.3544  16.4660  17.5164  18.0503

          k = 0.6250 0.0722 0.0000 (   948 PWs)   bands (ev):

   -13.6726 -12.8467 -10.1593  -1.2360   0.7980  10.8065  12.0392  12.1643
    12.4647  14.0476  14.3771  14.6402  15.2558  16.9941  17.5739  18.5212

          k = 0.6167 0.0866 0.0000 (   952 PWs)   bands (ev):

   -13.7961 -12.9304  -9.8570  -1.4128   0.9346  10.9422  11.8794  11.9055
    12.1263  13.8486  14.2574  14.4897  15.1668  17.5643  17.6528  18.9841

          k = 0.6083 0.1010 0.0000 (   944 PWs)   bands (ev):

   -13.9105 -13.0185  -9.5421  -1.5769   1.0528  11.0936  11.5100  11.7267
    11.9085  13.6634  14.1402  14.3451  15.0979  17.7564  18.1642  19.4084

          k = 0.6000 0.1155 0.0000 (   944 PWs)   bands (ev):

   -14.0168 -13.1078  -9.2242  -1.7299   1.1525  11.0619  11.2538  11.5816
    11.7409  13.4917  14.0257  14.2077  15.0566  17.8753  18.7849  19.4488

          k = 0.5917 0.1299 0.0000 (   948 PWs)   bands (ev):

   -14.1149 -13.1954  -8.9084  -1.8711   1.2357  10.6070  11.4152  11.4455
    11.5919  13.3336  13.9158  14.0785  15.0488  18.0046  19.2970  19.4074

          k = 0.5833 0.1443 0.0000 (   952 PWs)   bands (ev):

   -14.2043 -13.2791  -8.5979  -2.0006   1.3040  10.1588  11.3196  11.4565
    11.5695  13.1892  13.8124  13.9584  15.0794  18.1473  19.1580  19.7745

          k = 0.5750 0.1588 0.0000 (   944 PWs)   bands (ev):

   -14.2850 -13.3557  -8.2960  -2.1147   1.3600   9.7284  11.2045  11.3339
    11.7098  13.0589  13.7164  13.8484  15.1511  18.3009  19.0331  19.8253

          k = 0.5667 0.1732 0.0000 (   946 PWs)   bands (ev):

   -14.3574 -13.4260  -8.0113  -2.2194   1.4031   9.3203  11.1004  11.2238
    11.8293  12.9419  13.6284  13.7488  15.2626  18.4582  18.9204  19.8386

          k = 0.5583 0.1876 0.0000 (   946 PWs)   bands (ev):

   -14.4215 -13.4896  -7.7440  -2.3098   1.4385   8.9428  11.0079  11.1263
    11.9264  12.8390  13.5493  13.6600  15.4091  18.6160  18.8214  19.8382

          k = 0.5500 0.2021 0.0000 (   946 PWs)   bands (ev):

   -14.4767 -13.5451  -7.4987  -2.3910   1.4647   8.6000  10.9272  11.0416
    12.0004  12.7493  13.4799  13.5824  15.5805  18.7349  18.7782  19.8307

          k = 0.5417 0.2165 0.0000 (   946 PWs)   bands (ev):

   -14.5237 -13.5923  -7.2813  -2.4590   1.4845   8.2987  10.8586  10.9698
    12.0543  12.6736  13.4204  13.5164  15.7636  18.6618  18.9376  19.8194

          k = 0.5333 0.2309 0.0000 (   936 PWs)   bands (ev):

   -14.5619 -13.6305  -7.0926  -2.5133   1.5008   8.0440  10.8023  10.9109
    12.0925  12.6118  13.3714  13.4623  15.9438  18.6022  19.0928  19.8079

          k = 0.5250 0.2454 0.0000 (   928 PWs)   bands (ev):

   -14.5916 -13.6599  -6.9410  -2.5559   1.5111   7.8397  10.7585  10.8652
    12.1173  12.5636  13.3331  13.4202  16.1033  18.5558  19.2371  19.7975

          k = 0.5167 0.2598 0.0000 (   924 PWs)   bands (ev):

   -14.6129 -13.6817  -6.8297  -2.5869   1.5178   7.6905  10.7271  10.8324
    12.1325  12.5292  13.3055  13.3898  16.2284  18.5225  19.3563  19.7884

          k = 0.5083 0.2742 0.0000 (   930 PWs)   bands (ev):

   -14.6259 -13.6954  -6.7643  -2.6059   1.5191   7.5995  10.7081  10.8126
    12.1399  12.5085  13.2888  13.3715  16.3073  18.5025  19.4376  19.7822

          k = 0.5000 0.2887 0.0000 (   934 PWs)   bands (ev):

   -14.6309 -13.6998  -6.7420  -2.6121   1.5196   7.5686  10.7016  10.8060
    12.1422  12.5016  13.2829  13.3653  16.3343  18.4958  19.4652  19.7802

          k = 0.4750 0.2742 0.0000 (   926 PWs)   bands (ev):

   -14.8836 -13.4238  -6.7249  -2.7117   1.6466   7.5759   9.9651  11.5605
    11.5745  12.5642  13.0983  14.1124  16.2417  18.5617  19.0629  20.0980

          k = 0.4500 0.2598 0.0000 (   927 PWs)   bands (ev):

   -15.3369 -12.9046  -6.6794  -2.9791   1.9868   7.5953   9.2152  10.8547
    11.8281  12.4291  13.8324  14.9176  16.0073  18.4956  18.7397  20.0271

          k = 0.4250 0.2454 0.0000 (   929 PWs)   bands (ev):

   -15.8113 -12.3198  -6.6039  -3.3528   2.4798   7.6252   8.5055  10.1716
    11.1369  13.2918  14.4730  15.7284  15.7768  17.9111  19.0040  19.5001

          k = 0.4000 0.2309 0.0000 (   935 PWs)   bands (ev):

   -16.2744 -11.7032  -6.4996  -3.7805   3.0713   7.6292   7.8726   9.5199
    10.4797  14.1555  14.6701  15.9340  16.5185  17.3365  18.8258  19.3469

          k = 0.3750 0.2165 0.0000 (   935 PWs)   bands (ev):

   -16.7161 -11.0643  -6.3657  -4.2282   3.7223   7.1611   7.7630   8.9034
     9.8612  14.3822  14.9736  16.5360  16.7580  17.2838  18.0570  19.7740

          k = 0.3500 0.2021 0.0000 (   929 PWs)   bands (ev):

   -17.1350 -10.4073  -6.2040  -4.6742   4.4176   6.5730   7.8209   8.3244
     9.2840  13.9685  15.6481  16.2398  17.2240  17.2280  17.9662  20.2908

          k = 0.3250 0.1876 0.0000 (   933 PWs)   bands (ev):

   -17.5284  -9.7405  -6.0172  -5.1117   5.1292   6.0184   7.7858   7.8843
     8.7557  13.5338  15.6940  16.0920  16.3501  17.9012  18.6834  20.8832

          k = 0.3000 0.1732 0.0000 (   931 PWs)   bands (ev):

   -17.8948  -9.0656  -5.8059  -5.5267   5.5031   5.8422   7.2972   7.9027
     8.3198  13.1082  15.2341  15.4612  16.1445  18.5289  19.5438  21.4987

          k = 0.2750 0.1588 0.0000 (   929 PWs)   bands (ev):

   -18.2333  -8.3878  -5.9167  -5.5740   5.0281   6.4484   6.9502   7.6660
     8.1854  12.7027  14.5683  14.7961  15.9580  19.0978  20.5457  22.0354

          k = 0.2500 0.1443 0.0000 (   929 PWs)   bands (ev):

   -18.5442  -7.7125  -6.2803  -5.3229   4.5938   6.3098   7.2793   7.3798
     8.2399  12.3227  13.6962  14.3917  15.6387  19.5897  21.6394  22.4230

          k = 0.2250 0.1299 0.0000 (   931 PWs)   bands (ev):

   -18.8266  -7.0449  -6.6138  -5.0564   4.2004   5.9490   6.9054   8.0492
     8.3137  11.9726  12.8492  14.0234  15.2605  19.9653  22.7523  22.7685

          k = 0.2000 0.1155 0.0000 (   929 PWs)   bands (ev):

   -19.0802  -6.9144  -6.3933  -4.7800   3.8482   5.6098   6.5654   8.3848
     8.7100  11.6557  12.0453  13.6917  14.8643  20.1926  23.1700  23.7375

          k = 0.1750 0.1010 0.0000 (   919 PWs)   bands (ev):

   -19.3043  -7.1812  -5.7661  -4.4998   3.5373   5.3066   6.2637   8.4467
     9.3354  11.2920  11.3736  13.3976  14.4806  20.2784  23.7412  23.7956

          k = 0.1500 0.0866 0.0000 (   915 PWs)   bands (ev):

   -19.4992  -7.4139  -5.1761  -4.2229   3.2678   5.0424   6.0012   8.4879
     9.9150  10.5929  11.1276  13.1407  14.1283  20.2684  23.6140  24.3045

          k = 0.1250 0.0722 0.0000 (   911 PWs)   bands (ev):

   -19.6644  -7.6123  -4.6351  -3.9603   3.0396   4.8181   5.7789   8.5037
     9.9730  10.4292  10.9189  12.9216  13.8207  20.2092  23.4407  23.9321

          k = 0.1000 0.0577 0.0000 (   901 PWs)   bands (ev):

   -19.7998  -7.7742  -4.1584  -3.7213   2.8530   4.6343   5.5969   8.5025
     9.4402  10.7375  10.8854  12.7406  13.5682  20.1344  23.2930  23.5571

          k = 0.0750 0.0433 0.0000 (   909 PWs)   bands (ev):

   -19.9054  -7.9019  -3.7710  -3.5195   2.7077   4.4910   5.4553   8.4768
     9.0036  10.6082  11.2338  12.5985  13.3756  20.0615  23.1734  23.2315

          k = 0.0500 0.0289 0.0000 (   909 PWs)   bands (ev):

   -19.9808  -7.9931  -3.4765  -3.3643   2.6040   4.3885   5.3543   8.4511
     8.6827  10.5123  11.4932  12.4961  13.2430  20.0029  22.9780  23.0921

          k = 0.0250 0.0144 0.0000 (   907 PWs)   bands (ev):

   -20.0261  -8.0455  -3.2940  -3.2654   2.5418   4.3273   5.2937   8.4278
     8.4844  10.4553  11.6531  12.4344  13.1662  19.9670  22.8227  23.0401

          k = 0.0000 0.0000 0.0000 (   915 PWs)   bands (ev):

   -20.0411  -8.0648  -3.2316  -3.2316   2.5211   4.3067   5.2735   8.4130
     8.4130  10.4357  11.7078  12.4137  13.1412  19.9536  22.7694  23.0228

     Writing all to output data dir ./work/graphene.save/

     init_run     :      0.64s CPU      0.38s WALL (       1 calls)
     electrons    :     61.20s CPU     15.85s WALL (       1 calls)

     Called by init_run:
     wfcinit      :      0.00s CPU      0.00s WALL (       1 calls)
     potinit      :      0.03s CPU      0.01s WALL (       1 calls)
     hinit0       :      0.58s CPU      0.36s WALL (       1 calls)

     Called by electrons:
     c_bands      :     61.20s CPU     15.85s WALL (       1 calls)
     v_of_rho     :      0.03s CPU      0.01s WALL (       1 calls)
     newd         :      0.02s CPU      0.01s WALL (       1 calls)

     Called by c_bands:
     init_us_2    :      0.01s CPU      0.01s WALL (      61 calls)
     init_us_2:cp :      0.01s CPU      0.01s WALL (      61 calls)
     cegterg      :     57.78s CPU     14.96s WALL (     136 calls)

     Called by *egterg:
     cdiaghg      :      2.77s CPU      0.73s WALL (    2244 calls)
     h_psi        :     36.26s CPU      9.46s WALL (    2380 calls)
     s_psi        :      1.48s CPU      0.39s WALL (    2380 calls)
     g_psi        :      0.27s CPU      0.06s WALL (    2183 calls)

     Called by h_psi:
     h_psi:calbec :      2.83s CPU      0.71s WALL (    2380 calls)
     vloc_psi     :     31.77s CPU      8.31s WALL (    2380 calls)
     add_vuspsi   :      1.54s CPU      0.40s WALL (    2380 calls)

     General routines
     calbec       :      2.81s CPU      0.71s WALL (    2380 calls)
     fft          :      0.43s CPU      0.27s WALL (      13 calls)
     ffts         :      0.00s CPU      0.00s WALL (       1 calls)
     fftw         :     29.16s CPU      7.70s WALL (   39404 calls)
     interpolate  :      0.00s CPU      0.00s WALL (       1 calls)


     PWSCF        :   1m 2.09s CPU     16.43s WALL


   This run was terminated on:  23:36: 5   4Jan2023            

=------------------------------------------------------------------------------=
   JOB DONE.
=------------------------------------------------------------------------------=
