
     Program PWSCF v.7.0 starts on  4Jan2023 at 23:34: 2 

     This program is part of the open-source Quantum ESPRESSO suite
     for quantum simulation of materials; please cite
         "P. Giannozzi et al., J. Phys.:Condens. Matter 21 395502 (2009);
         "P. Giannozzi et al., J. Phys.:Condens. Matter 29 465901 (2017);
         "P. Giannozzi et al., J. Chem. Phys. 152 154105 (2020);
          URL http://www.quantum-espresso.org", 
     in publications or presentations arising from this work. More details at
     http://www.quantum-espresso.org/quote

     Serial multi-threaded version, running on    4 processor cores
     4615 MiB available memory on the printing compute node when the environment starts

     Waiting for input...
     Reading input from standard input

     Current dimensions of program PWSCF are:
     Max number of different atomic species (ntypx) = 10
     Max number of k-points (npk) =  40000
     Max angular momentum in pseudopotentials (lmaxx) =  4

     G-vector sticks info
     --------------------
     sticks:   dense  smooth     PW     G-vecs:    dense   smooth      PW
     Sum         211     169     61                10409     7409    1501

     Using Slab Decomposition



     bravais-lattice index     =            4
     lattice parameter (alat)  =       4.6020  a.u.
     unit-cell volume          =     337.6218 (a.u.)^3
     number of atoms/cell      =            2
     number of atomic types    =            1
     number of electrons       =         8.00
     number of Kohn-Sham states=            8
     kinetic-energy cutoff     =      30.0000  Ry
     charge density cutoff     =     150.0000  Ry
     scf convergence threshold =      1.0E-08
     mixing beta               =       0.7000
     number of iterations used =            8  plain     mixing
     Exchange-correlation= PBE
                           (   1   4   3   4   0   0   0)

     celldm(1)=   4.602000  celldm(2)=   0.000000  celldm(3)=   4.000000
     celldm(4)=   0.000000  celldm(5)=   0.000000  celldm(6)=   0.000000

     crystal axes: (cart. coord. in units of alat)
               a(1) = (   1.000000   0.000000   0.000000 )  
               a(2) = (  -0.500000   0.866025   0.000000 )  
               a(3) = (   0.000000   0.000000   4.000000 )  

     reciprocal axes: (cart. coord. in units 2 pi/alat)
               b(1) = (  1.000000  0.577350 -0.000000 )  
               b(2) = (  0.000000  1.154701  0.000000 )  
               b(3) = (  0.000000 -0.000000  0.250000 )  


     PseudoPot. # 1 for C  read from file:
     ./pseudo/C.pbe-n-rrkjus_psl.1.0.0.UPF
     MD5 check sum: 1fdd950c42eb37d8afe3dd2f8d12311e
     Pseudo is Ultrasoft + core correction, Zval =  4.0
     Generated using &quot;atomic&quot; code by A. Dal Corso  v.6.3MaX
     Using radial grid of 1073 points,  4 beta functions with: 
                l(1) =   0
                l(2) =   0
                l(3) =   1
                l(4) =   1
     Q(r) pseudized with 0 coefficients 


     atomic species   valence    mass     pseudopotential
        C              4.00    12.01070     C ( 1.00)

     24 Sym. Ops., with inversion, found (12 have fractional translation)



   Cartesian axes

     site n.     atom                  positions (alat units)
         1           C   tau(   1) = (   0.0000000   0.0000000   0.0000000  )
         2           C   tau(   2) = (   0.0000000   0.5773503   0.0000000  )

     number of k points=    19  Methfessel-Paxton smearing, width (Ry)=  0.0100
                       cart. coord. in units 2pi/alat
        k(    1) = (   0.0000000   0.0000000   0.0000000), wk =   0.0138889
        k(    2) = (   0.0000000   0.0962250   0.0000000), wk =   0.0833333
        k(    3) = (   0.0000000   0.1924501   0.0000000), wk =   0.0833333
        k(    4) = (   0.0000000   0.2886751   0.0000000), wk =   0.0833333
        k(    5) = (   0.0000000   0.3849002   0.0000000), wk =   0.0833333
        k(    6) = (   0.0000000   0.4811252   0.0000000), wk =   0.0833333
        k(    7) = (   0.0000000  -0.5773503   0.0000000), wk =   0.0416667
        k(    8) = (   0.0833333   0.1443376   0.0000000), wk =   0.0833333
        k(    9) = (   0.0833333   0.2405626   0.0000000), wk =   0.1666667
        k(   10) = (   0.0833333   0.3367877   0.0000000), wk =   0.1666667
        k(   11) = (   0.0833333   0.4330127   0.0000000), wk =   0.1666667
        k(   12) = (   0.0833333   0.5292377   0.0000000), wk =   0.1666667
        k(   13) = (   0.1666667   0.2886751   0.0000000), wk =   0.0833333
        k(   14) = (   0.1666667   0.3849002   0.0000000), wk =   0.1666667
        k(   15) = (   0.1666667   0.4811252   0.0000000), wk =   0.1666667
        k(   16) = (   0.1666667   0.5773503   0.0000000), wk =   0.0833333
        k(   17) = (   0.2500000   0.4330127   0.0000000), wk =   0.0833333
        k(   18) = (   0.2500000   0.5292377   0.0000000), wk =   0.1666667
        k(   19) = (   0.3333333   0.5773503   0.0000000), wk =   0.0277778

     Dense  grid:    10409 G-vectors     FFT dimensions: (  18,  18,  72)

     Smooth grid:     7409 G-vectors     FFT dimensions: (  18,  18,  72)

     Estimated max dynamical RAM per process >      16.65 MB

     Check: negative core charge=   -0.000047

     Initial potential from superposition of free atoms

     starting charge       7.9999, renormalised to       8.0000

     negative rho (up, down):  4.556E-04 0.000E+00
     Starting wfcs are    8 randomized atomic wfcs

     total cpu time spent up to now is        0.8 secs

     Self-consistent Calculation

     iteration #  1     ecut=    30.00 Ry     beta= 0.70
     Davidson diagonalization with overlap
     ethr =  1.00E-02,  avg # of iterations =  5.8

     negative rho (up, down):  1.283E-03 0.000E+00

     total cpu time spent up to now is        1.3 secs

     total energy              =     -24.80901497 Ry
     estimated scf accuracy    <       0.21571333 Ry

     iteration #  2     ecut=    30.00 Ry     beta= 0.70
     Davidson diagonalization with overlap
     ethr =  2.70E-03,  avg # of iterations =  3.3

     negative rho (up, down):  1.509E-03 0.000E+00

     total cpu time spent up to now is        1.6 secs

     total energy              =     -24.84095652 Ry
     estimated scf accuracy    <       0.00243217 Ry

     iteration #  3     ecut=    30.00 Ry     beta= 0.70
     Davidson diagonalization with overlap
     ethr =  3.04E-05,  avg # of iterations =  6.9

     negative rho (up, down):  1.622E-03 0.000E+00

     total cpu time spent up to now is        2.2 secs

     total energy              =     -24.84116990 Ry
     estimated scf accuracy    <       0.00016326 Ry

     iteration #  4     ecut=    30.00 Ry     beta= 0.70
     Davidson diagonalization with overlap
     ethr =  2.04E-06,  avg # of iterations =  3.0

     negative rho (up, down):  1.641E-03 0.000E+00

     total cpu time spent up to now is        2.5 secs

     total energy              =     -24.84117752 Ry
     estimated scf accuracy    <       0.00000043 Ry

     iteration #  5     ecut=    30.00 Ry     beta= 0.70
     Davidson diagonalization with overlap
     ethr =  5.42E-09,  avg # of iterations =  3.1

     negative rho (up, down):  1.646E-03 0.000E+00

     total cpu time spent up to now is        2.9 secs

     total energy              =     -24.84117801 Ry
     estimated scf accuracy    <       0.00000002 Ry

     iteration #  6     ecut=    30.00 Ry     beta= 0.70
     Davidson diagonalization with overlap
     ethr =  2.81E-10,  avg # of iterations =  2.0

     negative rho (up, down):  1.648E-03 0.000E+00

     total cpu time spent up to now is        3.2 secs

     End of self-consistent calculation

          k = 0.0000 0.0000 0.0000 (   915 PWs)   bands (ev):

   -20.0410  -8.0647  -3.2315  -3.2315   2.5206   4.3063   5.2729   8.4132

          k = 0.0000 0.0962 0.0000 (   905 PWs)   bands (ev):

   -19.8734  -7.8631  -3.8889  -3.5822   2.7510   4.5338   5.4974   8.4886

          k = 0.0000 0.1925 0.0000 (   919 PWs)   bands (ev):

   -19.3724  -7.2626  -5.5654  -4.4071   3.4423   5.2137   6.1712   8.4627

          k = 0.0000 0.2887 0.0000 (   929 PWs)   bands (ev):

   -18.5441  -7.7123  -6.2801  -5.3227   4.5933   6.3094   7.2787   7.3800

          k = 0.0000 0.3849 0.0000 (   933 PWs)   bands (ev):

   -17.4001  -9.9637  -6.0820  -4.9686   4.8910   6.1985   7.8639   7.9599

          k = 0.0000 0.4811 0.0000 (   929 PWs)   bands (ev):

   -15.9672 -12.1168  -6.5721  -3.4911   2.6683   7.6358   8.2797   9.9503

          k = 0.0000-0.5774 0.0000 (   934 PWs)   bands (ev):

   -14.6307 -13.6997  -6.7419  -2.6119   1.5197   7.5687  10.7012  10.8055

          k = 0.0833 0.1443 0.0000 (   924 PWs)   bands (ev):

   -19.5391  -7.4641  -4.9450  -4.2875   3.2120   4.9875   5.9476   8.7889

          k = 0.0833 0.2406 0.0000 (   933 PWs)   bands (ev):

   -18.8746  -6.6934  -6.6710  -5.3224   4.1337   5.8888   6.8475   8.2223

          k = 0.0833 0.3368 0.0000 (   943 PWs)   bands (ev):

   -17.8885  -8.8132  -6.2415  -5.5166   5.5132   5.9490   7.2753   8.1636

          k = 0.0833 0.4330 0.0000 (   943 PWs)   bands (ev):

   -16.5976 -10.9861  -6.8984  -4.0860   3.6587   7.3418   8.4792   9.0351

          k = 0.0833 0.5292 0.0000 (   941 PWs)   bands (ev):

   -15.0685 -12.9866  -7.2375  -2.7249   1.8154   8.3166   9.6279  11.1606

          k = 0.1667 0.2887 0.0000 (   936 PWs)   bands (ev):

   -18.0521  -8.0390  -6.7375  -5.6999   5.2845   6.4368   7.0052   7.9761

          k = 0.1667 0.3849 0.0000 (   950 PWs)   bands (ev):

   -16.9189  -9.8067  -7.8232  -4.4054   4.4076   6.8894   8.5288   9.5316

          k = 0.1667 0.4811 0.0000 (   947 PWs)   bands (ev):

   -15.5060 -11.7702  -8.4087  -2.9256   2.4186   8.9346  10.2442  10.3409

          k = 0.1667 0.5774 0.0000 (   952 PWs)   bands (ev):

   -14.2042 -13.2789  -8.5977  -2.0005   1.3041  10.1590  11.3193  11.4562

          k = 0.2500 0.4330 0.0000 (   940 PWs)   bands (ev):

   -15.6595 -10.8410  -9.3626  -3.0148   2.7401   8.7091  10.0099  11.2995

          k = 0.2500 0.5292 0.0000 (   942 PWs)   bands (ev):

   -14.1910 -12.3093 -10.0835  -1.5792   1.1628  10.7784  10.9255  12.4272

          k = 0.3333 0.5774 0.0000 (   936 PWs)   bands (ev):

   -12.9307 -12.9307 -11.0462  -0.1740  -0.1740  10.4858  12.8368  12.8368

     the Fermi energy is    -0.1740 ev

!    total energy              =     -24.84117803 Ry
     estimated scf accuracy    <          4.9E-10 Ry
     smearing contrib. (-TS)   =      -0.00007836 Ry
     internal energy E=F+TS    =     -24.84109967 Ry

     The total energy is F=E-TS. E is the sum of the following terms:
     one-electron contribution =     -89.34240354 Ry
     hartree contribution      =      46.58446467 Ry
     xc contribution           =      -9.32664967 Ry
     ewald contribution        =      27.24348888 Ry

     convergence has been achieved in   6 iterations

     negative rho (up, down):  1.648E-03 0.000E+00

     Forces acting on atoms (cartesian axes, Ry/au):

     atom    1 type  1   force =     0.00000000   -0.00000000    0.00000000
     atom    2 type  1   force =     0.00000000    0.00000000    0.00000000

     Total force =     0.000000     Total SCF correction =     0.000000


     Computing stress (Cartesian axis) and pressure


     negative rho (up, down):  1.648E-03 0.000E+00
          total   stress  (Ry/bohr**3)                   (kbar)     P=        9.08
   0.00020026   0.00000000   0.00000000           29.46        0.00        0.00
   0.00000000   0.00020026  -0.00000000            0.00       29.46       -0.00
   0.00000000  -0.00000000  -0.00021529            0.00       -0.00      -31.67


     Writing all to output data dir ./work/graphene.save/

     init_run     :      2.05s CPU      0.74s WALL (       1 calls)
     electrons    :      8.86s CPU      2.37s WALL (       1 calls)
     forces       :      0.21s CPU      0.06s WALL (       1 calls)
     stress       :      0.32s CPU      0.08s WALL (       1 calls)

     Called by init_run:
     wfcinit      :      1.38s CPU      0.35s WALL (       1 calls)
     potinit      :      0.03s CPU      0.01s WALL (       1 calls)
     hinit0       :      0.62s CPU      0.37s WALL (       1 calls)

     Called by electrons:
     c_bands      :      7.37s CPU      1.98s WALL (       6 calls)
     sum_band     :      1.15s CPU      0.30s WALL (       6 calls)
     v_of_rho     :      0.13s CPU      0.04s WALL (       7 calls)
     newd         :      0.16s CPU      0.04s WALL (       7 calls)
     mix_rho      :      0.01s CPU      0.00s WALL (       6 calls)

     Called by c_bands:
     init_us_2    :      0.11s CPU      0.02s WALL (     285 calls)
     init_us_2:cp :      0.11s CPU      0.02s WALL (     285 calls)
     cegterg      :      7.24s CPU      1.95s WALL (     114 calls)

     Called by *egterg:
     cdiaghg      :      0.17s CPU      0.06s WALL (     571 calls)
     h_psi        :      6.75s CPU      1.83s WALL (     590 calls)
     s_psi        :      0.27s CPU      0.06s WALL (     590 calls)
     g_psi        :      0.04s CPU      0.01s WALL (     457 calls)

     Called by h_psi:
     h_psi:calbec :      0.45s CPU      0.11s WALL (     590 calls)
     vloc_psi     :      6.02s CPU      1.65s WALL (     590 calls)
     add_vuspsi   :      0.27s CPU      0.06s WALL (     590 calls)

     General routines
     calbec       :      0.67s CPU      0.17s WALL (     799 calls)
     fft          :      0.49s CPU      0.29s WALL (     114 calls)
     ffts         :      0.02s CPU      0.00s WALL (      13 calls)
     fftw         :      6.15s CPU      1.70s WALL (    6484 calls)
     interpolate  :      0.01s CPU      0.00s WALL (       7 calls)


     PWSCF        :     11.57s CPU      3.37s WALL


   This run was terminated on:  23:34: 6   4Jan2023            

=------------------------------------------------------------------------------=
   JOB DONE.
=------------------------------------------------------------------------------=
