
     Program PWSCF v.6.3 starts on 19Apr2020 at 16:20:56 

     This program is part of the open-source Quantum ESPRESSO suite
     for quantum simulation of materials; please cite
         "P. Giannozzi et al., J. Phys.:Condens. Matter 21 395502 (2009);
         "P. Giannozzi et al., J. Phys.:Condens. Matter 29 465901 (2017);
          URL http://www.quantum-espresso.org", 
     in publications or presentations arising from this work. More details at
     http://www.quantum-espresso.org/quote

     Parallel version (MPI), running on     1 processors

     MPI processes distributed on     1 nodes
     Reading input from /home/nano3/Desktop/RAYID/Ge+SiC/Ge+SiC_II/Ge+SiC_II__4.5.band_nscf.in

     Current dimensions of program PWSCF are:
     Max number of different atomic species (ntypx) = 10
     Max number of k-points (npk) =  40000
     Max angular momentum in pseudopotentials (lmaxx) =  3

     Atomic positions and unit cell read from directory:
     /home/nano3/Desktop/RAYID/Ge+SiC/Ge+SiC_II/work/Ge+SiC_II__4.5.save/


     IMPORTANT: XC functional enforced from input :
     Exchange-correlation      = PBE ( 1  4  3  4 0 0)
     Any further DFT definition will be discarded
     Please, verify this is what you really want

               file Ge.pbe-mt_fhi.UPF: wavefunction(s)  4d 4f renormalized
               file C.pbe-mt_fhi.UPF: wavefunction(s)  4f renormalized
               file Si.pbe-mt_fhi.UPF: wavefunction(s)  4f renormalized

     -------------------------------------------------
     Parameters for Dispersion (Grimme-D2) Correction:
     -------------------------------------------------
       atom      VdW radius       C_6     

        Ge         3.264        593.221
        C          2.744         60.710
        Si         3.243        320.200

     Subspace diagonalization in iterative solution of the eigenvalue problem:
     a serial algorithm will be used


     G-vector sticks info
     --------------------
     sticks:   dense  smooth     PW     G-vecs:    dense   smooth      PW
     Sum        4429    4429   1177               388955   388955   53541



     bravais-lattice index     =            4
     lattice parameter (alat)  =      23.1302  a.u.
     unit-cell volume          =   17511.3678 (a.u.)^3
     number of atoms/cell      =           50
     number of atomic types    =            3
     number of electrons       =       200.00
     number of Kohn-Sham states=          120
     kinetic-energy cutoff     =      30.0000  Ry
     charge density cutoff     =     120.0000  Ry
     Exchange-correlation      = PBE ( 1  4  3  4 0 0)

     celldm(1)=  23.130248  celldm(2)=   0.000000  celldm(3)=   1.633987
     celldm(4)=   0.000000  celldm(5)=   0.000000  celldm(6)=   0.000000

     crystal axes: (cart. coord. in units of alat)
               a(1) = (   1.000000   0.000000   0.000000 )  
               a(2) = (  -0.500000   0.866025   0.000000 )  
               a(3) = (   0.000000   0.000000   1.633987 )  

     reciprocal axes: (cart. coord. in units 2 pi/alat)
               b(1) = (  1.000000  0.577350 -0.000000 )  
               b(2) = (  0.000000  1.154701  0.000000 )  
               b(3) = (  0.000000 -0.000000  0.612000 )  


     PseudoPot. # 1 for Ge read from file:
     /home/nano3/Desktop/RAYID/qe-6.3/bin/pseudo/Ge.pbe-mt_fhi.UPF
     MD5 check sum: b08ff19c3d362044f6e29226b459d86a
     Pseudo is Norm-conserving, Zval =  4.0
     Generated using FHI98PP, converted with fhi2upf.x v.5.0.2
     Using radial grid of  529 points,  3 beta functions with: 
                l(1) =   1
                l(2) =   2
                l(3) =   3

     PseudoPot. # 2 for C  read from file:
     /home/nano3/Desktop/RAYID/qe-6.3/bin/pseudo/C.pbe-mt_fhi.UPF
     MD5 check sum: 058ca341f9d6d5327d9962fd88a91b65
     Pseudo is Norm-conserving, Zval =  4.0
     Generated using FHI98PP, converted with fhi2upf.x v.5.0.2
     Using radial grid of  461 points,  3 beta functions with: 
                l(1) =   0
                l(2) =   1
                l(3) =   3

     PseudoPot. # 3 for Si read from file:
     /home/nano3/Desktop/RAYID/qe-6.3/bin/pseudo/Si.pbe-mt_fhi.UPF
     MD5 check sum: 259057c2adf9952f9ced37ae3d9e311d
     Pseudo is Norm-conserving, Zval =  4.0
     Generated using FHI98PP, converted with fhi2upf.x v.5.0.2
     Using radial grid of  495 points,  3 beta functions with: 
                l(1) =   0
                l(2) =   1
                l(3) =   3

     atomic species   valence    mass     pseudopotential
        Ge             4.00    72.59000     Ge( 1.00)
        C              4.00    12.01070     C ( 1.00)
        Si             4.00    28.08550     Si( 1.00)

      6 Sym. Ops. (no inversion) found


                                    s                        frac. trans.

      isym =  1     identity                                     

 cryst.   s( 1) = (     1          0          0      )
                  (     0          1          0      )
                  (     0          0          1      )

 cart.    s( 1) = (  1.0000000 -0.0000000  0.0000000 )
                  (  0.0000000  1.0000000  0.0000000 )
                  (  0.0000000  0.0000000  1.0000000 )


      isym =  2     120 deg rotation - cryst. axis [0,0,1]       

 cryst.   s( 2) = (     0          1          0      )
                  (    -1         -1          0      )
                  (     0          0          1      )

 cart.    s( 2) = ( -0.5000000 -0.8660254  0.0000000 )
                  (  0.8660254 -0.5000000  0.0000000 )
                  (  0.0000000  0.0000000  1.0000000 )


      isym =  3     120 deg rotation - cryst. axis [0,0,-1]      

 cryst.   s( 3) = (    -1         -1          0      )
                  (     1          0          0      )
                  (     0          0          1      )

 cart.    s( 3) = ( -0.5000000  0.8660254  0.0000000 )
                  ( -0.8660254 -0.5000000  0.0000000 )
                  (  0.0000000  0.0000000  1.0000000 )


      isym =  4     inv. 180 deg rotation - cart. axis [1,0,0]   

 cryst.   s( 4) = (    -1          0          0      )
                  (     1          1          0      )
                  (     0          0          1      )

 cart.    s( 4) = ( -1.0000000 -0.0000000  0.0000000 )
                  (  0.0000000  1.0000000  0.0000000 )
                  (  0.0000000  0.0000000  1.0000000 )


      isym =  5     inv. 180 deg rotation - cryst. axis [0,1,0]  

 cryst.   s( 5) = (     1          1          0      )
                  (     0         -1          0      )
                  (     0          0          1      )

 cart.    s( 5) = (  0.5000000  0.8660254  0.0000000 )
                  (  0.8660254 -0.5000000  0.0000000 )
                  (  0.0000000  0.0000000  1.0000000 )


      isym =  6     inv. 180 deg rotation - cryst. axis [1,1,0]  

 cryst.   s( 6) = (     0         -1          0      )
                  (    -1          0          0      )
                  (     0          0          1      )

 cart.    s( 6) = (  0.5000000 -0.8660254  0.0000000 )
                  ( -0.8660254 -0.5000000  0.0000000 )
                  (  0.0000000  0.0000000  1.0000000 )


     point group C_3v (3m)  
     there are  3 classes
     the character table:

       E     2C3   3s_v 
A_1    1.00  1.00  1.00
A_2    1.00  1.00 -1.00
E      2.00 -1.00  0.00

     the symmetry operations in each class and the name of the first element:

     E        1
          identity                                               
     2C3      2    3
          120 deg rotation - cryst. axis [0,0,1]                 
     3s_v     4    5    6
          inv. 180 deg rotation - cart. axis [1,0,0]             

   Cartesian axes

     site n.     atom                  positions (alat units)
         1           Ge  tau(   1) = (   0.0000000   0.0000000   0.3676471  )
         2           Ge  tau(   2) = (   0.0000000   0.1924510   0.4225490  )
         3           Ge  tau(   3) = (  -0.1666667   0.2886751   0.3676471  )
         4           Ge  tau(   4) = (  -0.1666667   0.4811261   0.4225490  )
         5           Ge  tau(   5) = (  -0.3333333   0.5773503   0.3676471  )
         6           Ge  tau(   6) = (  -0.3333333   0.7698012   0.4225490  )
         7           Ge  tau(   7) = (   0.3333333   0.0000000   0.3676471  )
         8           Ge  tau(   8) = (   0.3333333   0.1924510   0.4225490  )
         9           Ge  tau(   9) = (   0.1666667   0.2886751   0.3676471  )
        10           Ge  tau(  10) = (   0.1666667   0.4811261   0.4225490  )
        11           Ge  tau(  11) = (   0.0000000   0.5773503   0.3676471  )
        12           Ge  tau(  12) = (   0.0000000   0.7698012   0.4225490  )
        13           Ge  tau(  13) = (   0.6666667   0.0000000   0.3676471  )
        14           Ge  tau(  14) = (   0.6666667   0.1924510   0.4225490  )
        15           Ge  tau(  15) = (   0.5000000   0.2886751   0.3676471  )
        16           Ge  tau(  16) = (   0.5000000   0.4811261   0.4225490  )
        17           Ge  tau(  17) = (   0.3333333   0.5773503   0.3676471  )
        18           Ge  tau(  18) = (   0.3333333   0.7698012   0.4225490  )
        19           C   tau(  19) = (   0.0000000   0.0000000   0.0000000  )
        20           Si  tau(  20) = (   0.0000000   0.1443382   0.0000000  )
        21           C   tau(  21) = (  -0.1250000   0.2165064   0.0000000  )
        22           Si  tau(  22) = (  -0.1250000   0.3608446   0.0000000  )
        23           C   tau(  23) = (  -0.2500000   0.4330127   0.0000000  )
        24           Si  tau(  24) = (  -0.2500000   0.5773509   0.0000000  )
        25           C   tau(  25) = (  -0.3750000   0.6495191   0.0000000  )
        26           Si  tau(  26) = (  -0.3750000   0.7938573   0.0000000  )
        27           C   tau(  27) = (   0.2500000   0.0000000   0.0000000  )
        28           Si  tau(  28) = (   0.2500000   0.1443382   0.0000000  )
        29           C   tau(  29) = (   0.1250000   0.2165064   0.0000000  )
        30           Si  tau(  30) = (   0.1250000   0.3608446   0.0000000  )
        31           C   tau(  31) = (   0.0000000   0.4330127   0.0000000  )
        32           Si  tau(  32) = (   0.0000000   0.5773509   0.0000000  )
        33           C   tau(  33) = (  -0.1250000   0.6495191   0.0000000  )
        34           Si  tau(  34) = (  -0.1250000   0.7938573   0.0000000  )
        35           C   tau(  35) = (   0.5000000   0.0000000   0.0000000  )
        36           Si  tau(  36) = (   0.5000000   0.1443382   0.0000000  )
        37           C   tau(  37) = (   0.3750000   0.2165064   0.0000000  )
        38           Si  tau(  38) = (   0.3750000   0.3608446   0.0000000  )
        39           C   tau(  39) = (   0.2500000   0.4330127   0.0000000  )
        40           Si  tau(  40) = (   0.2500000   0.5773509   0.0000000  )
        41           C   tau(  41) = (   0.1250000   0.6495191   0.0000000  )
        42           Si  tau(  42) = (   0.1250000   0.7938573   0.0000000  )
        43           C   tau(  43) = (   0.7500000   0.0000000   0.0000000  )
        44           Si  tau(  44) = (   0.7500000   0.1443382   0.0000000  )
        45           C   tau(  45) = (   0.6250000   0.2165064   0.0000000  )
        46           Si  tau(  46) = (   0.6250000   0.3608446   0.0000000  )
        47           C   tau(  47) = (   0.5000000   0.4330127   0.0000000  )
        48           Si  tau(  48) = (   0.5000000   0.5773509   0.0000000  )
        49           C   tau(  49) = (   0.3750000   0.6495191   0.0000000  )
        50           Si  tau(  50) = (   0.3750000   0.7938573   0.0000000  )

   Crystallographic axes

     site n.     atom                  positions (cryst. coord.)
         1           Ge  tau(   1) = (  0.0000000  0.0000000  0.2250000  )
         2           Ge  tau(   2) = (  0.1111116  0.2222233  0.2586000  )
         3           Ge  tau(   3) = ( -0.0000000  0.3333333  0.2250000  )
         4           Ge  tau(   4) = (  0.1111116  0.5555566  0.2586000  )
         5           Ge  tau(   5) = ( -0.0000000  0.6666667  0.2250000  )
         6           Ge  tau(   6) = (  0.1111116  0.8888899  0.2586000  )
         7           Ge  tau(   7) = (  0.3333333  0.0000000  0.2250000  )
         8           Ge  tau(   8) = (  0.4444450  0.2222233  0.2586000  )
         9           Ge  tau(   9) = (  0.3333333  0.3333333  0.2250000  )
        10           Ge  tau(  10) = (  0.4444450  0.5555566  0.2586000  )
        11           Ge  tau(  11) = (  0.3333333  0.6666667  0.2250000  )
        12           Ge  tau(  12) = (  0.4444450  0.8888899  0.2586000  )
        13           Ge  tau(  13) = (  0.6666667  0.0000000  0.2250000  )
        14           Ge  tau(  14) = (  0.7777783  0.2222233  0.2586000  )
        15           Ge  tau(  15) = (  0.6666667  0.3333333  0.2250000  )
        16           Ge  tau(  16) = (  0.7777783  0.5555566  0.2586000  )
        17           Ge  tau(  17) = (  0.6666667  0.6666667  0.2250000  )
        18           Ge  tau(  18) = (  0.7777783  0.8888899  0.2586000  )
        19           C   tau(  19) = (  0.0000000  0.0000000  0.0000000  )
        20           Si  tau(  20) = (  0.0833337  0.1666674  0.0000000  )
        21           C   tau(  21) = (  0.0000000  0.2500000  0.0000000  )
        22           Si  tau(  22) = (  0.0833337  0.4166674  0.0000000  )
        23           C   tau(  23) = (  0.0000000  0.5000000  0.0000000  )
        24           Si  tau(  24) = (  0.0833337  0.6666674  0.0000000  )
        25           C   tau(  25) = (  0.0000000  0.7500000  0.0000000  )
        26           Si  tau(  26) = (  0.0833337  0.9166674  0.0000000  )
        27           C   tau(  27) = (  0.2500000  0.0000000  0.0000000  )
        28           Si  tau(  28) = (  0.3333337  0.1666674  0.0000000  )
        29           C   tau(  29) = (  0.2500000  0.2500000  0.0000000  )
        30           Si  tau(  30) = (  0.3333337  0.4166674  0.0000000  )
        31           C   tau(  31) = (  0.2500000  0.5000000  0.0000000  )
        32           Si  tau(  32) = (  0.3333337  0.6666674  0.0000000  )
        33           C   tau(  33) = (  0.2500000  0.7500000  0.0000000  )
        34           Si  tau(  34) = (  0.3333337  0.9166674  0.0000000  )
        35           C   tau(  35) = (  0.5000000  0.0000000  0.0000000  )
        36           Si  tau(  36) = (  0.5833337  0.1666674  0.0000000  )
        37           C   tau(  37) = (  0.5000000  0.2500000  0.0000000  )
        38           Si  tau(  38) = (  0.5833337  0.4166674  0.0000000  )
        39           C   tau(  39) = (  0.5000000  0.5000000  0.0000000  )
        40           Si  tau(  40) = (  0.5833337  0.6666674  0.0000000  )
        41           C   tau(  41) = (  0.5000000  0.7500000  0.0000000  )
        42           Si  tau(  42) = (  0.5833337  0.9166674  0.0000000  )
        43           C   tau(  43) = (  0.7500000  0.0000000  0.0000000  )
        44           Si  tau(  44) = (  0.8333337  0.1666674  0.0000000  )
        45           C   tau(  45) = (  0.7500000  0.2500000  0.0000000  )
        46           Si  tau(  46) = (  0.8333337  0.4166674  0.0000000  )
        47           C   tau(  47) = (  0.7500000  0.5000000  0.0000000  )
        48           Si  tau(  48) = (  0.8333337  0.6666674  0.0000000  )
        49           C   tau(  49) = (  0.7500000  0.7500000  0.0000000  )
        50           Si  tau(  50) = (  0.8333337  0.9166674  0.0000000  )

     number of k points=    61  Methfessel-Paxton smearing, width (Ry)=  0.0060
                       cart. coord. in units 2pi/alat
        k(    1) = (   0.0000000   0.5773503   0.0000000), wk =   0.0327869
        k(    2) = (   0.0166667   0.5773503   0.0000000), wk =   0.0327869
        k(    3) = (   0.0333333   0.5773503   0.0000000), wk =   0.0327869
        k(    4) = (   0.0500000   0.5773503   0.0000000), wk =   0.0327869
        k(    5) = (   0.0666667   0.5773503   0.0000000), wk =   0.0327869
        k(    6) = (   0.0833333   0.5773503   0.0000000), wk =   0.0327869
        k(    7) = (   0.1000000   0.5773503   0.0000000), wk =   0.0327869
        k(    8) = (   0.1166667   0.5773502   0.0000000), wk =   0.0327869
        k(    9) = (   0.1333333   0.5773502   0.0000000), wk =   0.0327869
        k(   10) = (   0.1500000   0.5773502   0.0000000), wk =   0.0327869
        k(   11) = (   0.1666666   0.5773502   0.0000000), wk =   0.0327869
        k(   12) = (   0.1833333   0.5773502   0.0000000), wk =   0.0327869
        k(   13) = (   0.2000000   0.5773502   0.0000000), wk =   0.0327869
        k(   14) = (   0.2166666   0.5773502   0.0000000), wk =   0.0327869
        k(   15) = (   0.2333333   0.5773502   0.0000000), wk =   0.0327869
        k(   16) = (   0.2500000   0.5773502   0.0000000), wk =   0.0327869
        k(   17) = (   0.2666666   0.5773502   0.0000000), wk =   0.0327869
        k(   18) = (   0.2833333   0.5773502   0.0000000), wk =   0.0327869
        k(   19) = (   0.3000000   0.5773502   0.0000000), wk =   0.0327869
        k(   20) = (   0.3166666   0.5773502   0.0000000), wk =   0.0327869
        k(   21) = (   0.3333333   0.5773502   0.0000000), wk =   0.0327869
        k(   22) = (   0.3166666   0.5484827   0.0000000), wk =   0.0327869
        k(   23) = (   0.3000000   0.5196152   0.0000000), wk =   0.0327869
        k(   24) = (   0.2833333   0.4907477   0.0000000), wk =   0.0327869
        k(   25) = (   0.2666666   0.4618802   0.0000000), wk =   0.0327869
        k(   26) = (   0.2500000   0.4330127   0.0000000), wk =   0.0327869
        k(   27) = (   0.2333333   0.4041451   0.0000000), wk =   0.0327869
        k(   28) = (   0.2166666   0.3752776   0.0000000), wk =   0.0327869
        k(   29) = (   0.2000000   0.3464101   0.0000000), wk =   0.0327869
        k(   30) = (   0.1833333   0.3175426   0.0000000), wk =   0.0327869
        k(   31) = (   0.1666666   0.2886751   0.0000000), wk =   0.0327869
        k(   32) = (   0.1500000   0.2598076   0.0000000), wk =   0.0327869
        k(   33) = (   0.1333333   0.2309401   0.0000000), wk =   0.0327869
        k(   34) = (   0.1166667   0.2020726   0.0000000), wk =   0.0327869
        k(   35) = (   0.1000000   0.1732051   0.0000000), wk =   0.0327869
        k(   36) = (   0.0833333   0.1443376   0.0000000), wk =   0.0327869
        k(   37) = (   0.0666667   0.1154700   0.0000000), wk =   0.0327869
        k(   38) = (   0.0500000   0.0866025   0.0000000), wk =   0.0327869
        k(   39) = (   0.0333333   0.0577350   0.0000000), wk =   0.0327869
        k(   40) = (   0.0166667   0.0288675   0.0000000), wk =   0.0327869
        k(   41) = (   0.0000000   0.0000000   0.0000000), wk =   0.0327869
        k(   42) = (   0.0000000   0.0288675   0.0000000), wk =   0.0327869
        k(   43) = (   0.0000000   0.0577350   0.0000000), wk =   0.0327869
        k(   44) = (   0.0000000   0.0866025   0.0000000), wk =   0.0327869
        k(   45) = (   0.0000000   0.1154701   0.0000000), wk =   0.0327869
        k(   46) = (   0.0000000   0.1443376   0.0000000), wk =   0.0327869
        k(   47) = (   0.0000000   0.1732051   0.0000000), wk =   0.0327869
        k(   48) = (   0.0000000   0.2020726   0.0000000), wk =   0.0327869
        k(   49) = (   0.0000000   0.2309401   0.0000000), wk =   0.0327869
        k(   50) = (   0.0000000   0.2598076   0.0000000), wk =   0.0327869
        k(   51) = (   0.0000000   0.2886751   0.0000000), wk =   0.0327869
        k(   52) = (   0.0000000   0.3175426   0.0000000), wk =   0.0327869
        k(   53) = (   0.0000000   0.3464102   0.0000000), wk =   0.0327869
        k(   54) = (   0.0000000   0.3752777   0.0000000), wk =   0.0327869
        k(   55) = (   0.0000000   0.4041452   0.0000000), wk =   0.0327869
        k(   56) = (   0.0000000   0.4330127   0.0000000), wk =   0.0327869
        k(   57) = (   0.0000000   0.4618802   0.0000000), wk =   0.0327869
        k(   58) = (   0.0000000   0.4907477   0.0000000), wk =   0.0327869
        k(   59) = (   0.0000000   0.5196152   0.0000000), wk =   0.0327869
        k(   60) = (   0.0000000   0.5484828   0.0000000), wk =   0.0327869
        k(   61) = (   0.0000000   0.5773503   0.0000000), wk =   0.0327869

                       cryst. coord.
        k(    1) = (   0.0000000   0.5000000   0.0000000), wk =   0.0327869
        k(    2) = (   0.0166667   0.4916667   0.0000000), wk =   0.0327869
        k(    3) = (   0.0333333   0.4833333   0.0000000), wk =   0.0327869
        k(    4) = (   0.0500000   0.4750000   0.0000000), wk =   0.0327869
        k(    5) = (   0.0666667   0.4666667   0.0000000), wk =   0.0327869
        k(    6) = (   0.0833333   0.4583333   0.0000000), wk =   0.0327869
        k(    7) = (   0.1000000   0.4500000   0.0000000), wk =   0.0327869
        k(    8) = (   0.1166667   0.4416667   0.0000000), wk =   0.0327869
        k(    9) = (   0.1333333   0.4333333   0.0000000), wk =   0.0327869
        k(   10) = (   0.1500000   0.4250000   0.0000000), wk =   0.0327869
        k(   11) = (   0.1666666   0.4166667   0.0000000), wk =   0.0327869
        k(   12) = (   0.1833333   0.4083333   0.0000000), wk =   0.0327869
        k(   13) = (   0.2000000   0.4000000   0.0000000), wk =   0.0327869
        k(   14) = (   0.2166666   0.3916666   0.0000000), wk =   0.0327869
        k(   15) = (   0.2333333   0.3833333   0.0000000), wk =   0.0327869
        k(   16) = (   0.2500000   0.3750000   0.0000000), wk =   0.0327869
        k(   17) = (   0.2666666   0.3666666   0.0000000), wk =   0.0327869
        k(   18) = (   0.2833333   0.3583333   0.0000000), wk =   0.0327869
        k(   19) = (   0.3000000   0.3500000   0.0000000), wk =   0.0327869
        k(   20) = (   0.3166666   0.3416666   0.0000000), wk =   0.0327869
        k(   21) = (   0.3333333   0.3333333   0.0000000), wk =   0.0327869
        k(   22) = (   0.3166666   0.3166666   0.0000000), wk =   0.0327869
        k(   23) = (   0.3000000   0.3000000   0.0000000), wk =   0.0327869
        k(   24) = (   0.2833333   0.2833333   0.0000000), wk =   0.0327869
        k(   25) = (   0.2666666   0.2666666   0.0000000), wk =   0.0327869
        k(   26) = (   0.2500000   0.2500000   0.0000000), wk =   0.0327869
        k(   27) = (   0.2333333   0.2333333   0.0000000), wk =   0.0327869
        k(   28) = (   0.2166666   0.2166666   0.0000000), wk =   0.0327869
        k(   29) = (   0.2000000   0.2000000   0.0000000), wk =   0.0327869
        k(   30) = (   0.1833333   0.1833333   0.0000000), wk =   0.0327869
        k(   31) = (   0.1666666   0.1666667   0.0000000), wk =   0.0327869
        k(   32) = (   0.1500000   0.1500000   0.0000000), wk =   0.0327869
        k(   33) = (   0.1333333   0.1333333   0.0000000), wk =   0.0327869
        k(   34) = (   0.1166667   0.1166667   0.0000000), wk =   0.0327869
        k(   35) = (   0.1000000   0.1000000   0.0000000), wk =   0.0327869
        k(   36) = (   0.0833333   0.0833333   0.0000000), wk =   0.0327869
        k(   37) = (   0.0666667   0.0666667   0.0000000), wk =   0.0327869
        k(   38) = (   0.0500000   0.0500000   0.0000000), wk =   0.0327869
        k(   39) = (   0.0333333   0.0333333   0.0000000), wk =   0.0327869
        k(   40) = (   0.0166667   0.0166667   0.0000000), wk =   0.0327869
        k(   41) = (   0.0000000   0.0000000   0.0000000), wk =   0.0327869
        k(   42) = (   0.0000000   0.0250000   0.0000000), wk =   0.0327869
        k(   43) = (   0.0000000   0.0500000   0.0000000), wk =   0.0327869
        k(   44) = (   0.0000000   0.0750000   0.0000000), wk =   0.0327869
        k(   45) = (   0.0000000   0.1000000   0.0000000), wk =   0.0327869
        k(   46) = (   0.0000000   0.1250000   0.0000000), wk =   0.0327869
        k(   47) = (   0.0000000   0.1500000   0.0000000), wk =   0.0327869
        k(   48) = (   0.0000000   0.1750000   0.0000000), wk =   0.0327869
        k(   49) = (   0.0000000   0.2000000   0.0000000), wk =   0.0327869
        k(   50) = (   0.0000000   0.2250000   0.0000000), wk =   0.0327869
        k(   51) = (   0.0000000   0.2500000   0.0000000), wk =   0.0327869
        k(   52) = (   0.0000000   0.2750000   0.0000000), wk =   0.0327869
        k(   53) = (   0.0000000   0.3000000   0.0000000), wk =   0.0327869
        k(   54) = (   0.0000000   0.3250000   0.0000000), wk =   0.0327869
        k(   55) = (   0.0000000   0.3500000   0.0000000), wk =   0.0327869
        k(   56) = (   0.0000000   0.3750000   0.0000000), wk =   0.0327869
        k(   57) = (   0.0000000   0.4000000   0.0000000), wk =   0.0327869
        k(   58) = (   0.0000000   0.4250000   0.0000000), wk =   0.0327869
        k(   59) = (   0.0000000   0.4500000   0.0000000), wk =   0.0327869
        k(   60) = (   0.0000000   0.4750000   0.0000000), wk =   0.0327869
        k(   61) = (   0.0000000   0.5000000   0.0000000), wk =   0.0327869

     Dense  grid:   388955 G-vectors     FFT dimensions: (  81,  81, 135)

     Dynamical RAM for                 wfc:      88.97 MB

     Dynamical RAM for     wfc (w. buffer):      88.97 MB

     Dynamical RAM for           str. fact:      17.80 MB

     Dynamical RAM for           local pot:       0.00 MB

     Dynamical RAM for          nlocal pot:     461.17 MB

     Dynamical RAM for                qrad:       3.88 MB

     Dynamical RAM for          rho,v,vnew:      38.08 MB

     Dynamical RAM for           G-vectors:      25.22 MB

     Dynamical RAM for          h,s,v(r/c):      10.55 MB

     Dynamical RAM for          <psi|beta>:       1.14 MB

     Dynamical RAM for                 psi:     355.88 MB

     Dynamical RAM for                hpsi:     355.88 MB

     Dynamical RAM for      wfcinit/wfcrot:    1200.93 MB

     Estimated static dynamical RAM per process >     692.65 MB

     Estimated max dynamical RAM per process >       1.85 GB

     The potential is recalculated from file :
     /home/nano3/Desktop/RAYID/Ge+SiC/Ge+SiC_II/work/Ge+SiC_II__4.5.save/charge-density.dat

     Starting wfcs are  800 randomized atomic wfcs

     Band Structure Calculation
     Davidson diagonalization with overlap

     Computing kpt #:     1
     total cpu time spent up to now is      554.9 secs

     Computing kpt #:     2
     total cpu time spent up to now is     1039.3 secs

     Computing kpt #:     3
     total cpu time spent up to now is     1474.0 secs

     Computing kpt #:     4
     total cpu time spent up to now is     1865.5 secs

     Computing kpt #:     5
     total cpu time spent up to now is     2299.7 secs

     Computing kpt #:     6
     total cpu time spent up to now is     2897.7 secs

     Computing kpt #:     7
     total cpu time spent up to now is     3519.6 secs

     Computing kpt #:     8
     total cpu time spent up to now is     4093.8 secs

     Computing kpt #:     9
     total cpu time spent up to now is     4667.2 secs

     Computing kpt #:    10
     total cpu time spent up to now is     5246.6 secs

     Computing kpt #:    11
     total cpu time spent up to now is     5841.7 secs

     Computing kpt #:    12
     total cpu time spent up to now is     6450.3 secs

     Computing kpt #:    13
     total cpu time spent up to now is     7053.1 secs

     Computing kpt #:    14
     total cpu time spent up to now is     7899.7 secs

     Computing kpt #:    15
     c_bands:  1 eigenvalues not converged
     total cpu time spent up to now is     8668.3 secs

     Computing kpt #:    16
     total cpu time spent up to now is     9260.6 secs

     Computing kpt #:    17
     total cpu time spent up to now is    10107.3 secs

     Computing kpt #:    18
     total cpu time spent up to now is    10773.2 secs

     Computing kpt #:    19
     total cpu time spent up to now is    11268.1 secs

     Computing kpt #:    20
     total cpu time spent up to now is    11831.9 secs

     Computing kpt #:    21
     total cpu time spent up to now is    12419.1 secs

     Computing kpt #:    22
     total cpu time spent up to now is    12951.2 secs

     Computing kpt #:    23
     total cpu time spent up to now is    13545.1 secs

     Computing kpt #:    24
     total cpu time spent up to now is    14120.3 secs

     Computing kpt #:    25
     total cpu time spent up to now is    14610.0 secs

     Computing kpt #:    26
     total cpu time spent up to now is    15072.4 secs

     Computing kpt #:    27
     total cpu time spent up to now is    15562.9 secs

     Computing kpt #:    28
     total cpu time spent up to now is    15923.0 secs

     Computing kpt #:    29
     total cpu time spent up to now is    16222.8 secs

     Computing kpt #:    30
     total cpu time spent up to now is    16536.5 secs

     Computing kpt #:    31
     total cpu time spent up to now is    17095.2 secs

     Computing kpt #:    32
     total cpu time spent up to now is    17695.5 secs

     Computing kpt #:    33
     total cpu time spent up to now is    18255.0 secs

     Computing kpt #:    34
     total cpu time spent up to now is    18846.9 secs

     Computing kpt #:    35
     total cpu time spent up to now is    19337.2 secs

     Computing kpt #:    36
     total cpu time spent up to now is    19895.0 secs

     Computing kpt #:    37
     total cpu time spent up to now is    20417.7 secs

     Computing kpt #:    38
     total cpu time spent up to now is    21012.6 secs

     Computing kpt #:    39
     total cpu time spent up to now is    21502.4 secs

     Computing kpt #:    40
     total cpu time spent up to now is    22073.9 secs

     Computing kpt #:    41
     total cpu time spent up to now is    22709.5 secs

     Computing kpt #:    42
     total cpu time spent up to now is    23084.4 secs

     Computing kpt #:    43
     total cpu time spent up to now is    23587.2 secs

     Computing kpt #:    44
     total cpu time spent up to now is    24102.8 secs

     Computing kpt #:    45
     total cpu time spent up to now is    24654.6 secs

     Computing kpt #:    46
     total cpu time spent up to now is    25230.7 secs

     Computing kpt #:    47
     total cpu time spent up to now is    25798.7 secs

     Computing kpt #:    48
     total cpu time spent up to now is    26371.1 secs

     Computing kpt #:    49
     total cpu time spent up to now is    26957.7 secs

     Computing kpt #:    50
     total cpu time spent up to now is    27471.2 secs

     Computing kpt #:    51
     total cpu time spent up to now is    27973.1 secs

     Computing kpt #:    52
     total cpu time spent up to now is    28566.1 secs

     Computing kpt #:    53
     total cpu time spent up to now is    29150.4 secs

     Computing kpt #:    54
     total cpu time spent up to now is    29669.6 secs

     Computing kpt #:    55
     total cpu time spent up to now is    30145.4 secs

     Computing kpt #:    56
     total cpu time spent up to now is    30537.9 secs

     Computing kpt #:    57
     total cpu time spent up to now is    30868.1 secs

     Computing kpt #:    58
     total cpu time spent up to now is    31200.7 secs

     Computing kpt #:    59
     total cpu time spent up to now is    31529.5 secs

     Computing kpt #:    60
     c_bands:  2 eigenvalues not converged
     total cpu time spent up to now is    32033.3 secs

     Computing kpt #:    61
     total cpu time spent up to now is    32481.3 secs

     ethr =  5.00E-08,  avg # of iterations = 40.7

     total cpu time spent up to now is    32481.4 secs

     End of band structure calculation

          k = 0.0000 0.5774 0.0000 ( 48666 PWs)   bands (ev):

   -15.3140 -15.3099 -14.7989 -14.7968 -13.8285 -13.8269 -13.8261 -13.8250
   -13.3980 -13.3955 -12.6817 -12.6791 -12.6766 -12.6745 -12.0937 -12.0914
   -11.8650 -11.8573 -11.2906 -11.2874 -10.2771 -10.2739 -10.2711 -10.2687
   -10.1889  -9.1049  -9.1044  -9.1012  -9.1009  -9.0506  -9.0489  -8.3883
    -8.3849  -8.3653  -8.1010  -8.0976  -8.0946  -8.0941  -7.3190  -7.3189
    -7.3180  -7.3178  -6.9647  -6.9637  -6.3958  -6.3948  -5.3693  -5.3678
    -5.3517  -5.3499  -5.3486  -5.3468  -5.2987  -5.2964  -4.9900  -4.9883
    -4.8532  -4.8525  -4.8514  -4.8506  -4.7084  -4.7067  -4.3009  -4.2970
    -3.9814  -3.9779  -3.9459  -3.9452  -3.9404  -3.9386  -3.9357  -3.9336
    -3.6796  -3.6784  -3.6777  -3.6766  -3.2420  -3.2207  -3.2054  -3.2020
    -3.1032  -3.1017  -3.0416  -3.0396  -3.0023  -2.8479  -2.8458  -2.4643
    -2.4620  -2.4584  -2.4564  -2.1274  -2.0362  -2.0309  -1.9838  -1.9798
    -1.9773  -1.9761  -1.7834  -1.7813  -0.3147  -0.1006  -0.0981  -0.0925
    -0.0861   0.5214   0.7822   0.7862   0.9848   0.9866   1.0715   1.0749
     1.2581   1.2641   1.3853   1.3870   1.4274   1.4288   2.1069   2.1089

          k = 0.0167 0.5774 0.0000 ( 48606 PWs)   bands (ev):

   -15.3137 -15.3097 -14.8228 -14.7722 -13.8495 -13.8492 -13.8036 -13.8034
   -13.3976 -13.3951 -12.7084 -12.7043 -12.6523 -12.6482 -12.1035 -12.0816
   -11.8647 -11.8569 -11.3167 -11.2607 -10.2925 -10.2915 -10.2537 -10.2536
   -10.1885  -9.1303  -9.1284  -9.0750  -9.0730  -9.0625  -9.0367  -8.3881
    -8.3846  -8.3654  -8.1273  -8.1250  -8.0680  -8.0657  -7.3675  -7.3674
    -7.2697  -7.2695  -7.0048  -6.9201  -6.4527  -6.3375  -5.4256  -5.3817
    -5.3798  -5.3186  -5.3168  -5.3083  -5.2983  -5.2961  -4.9904  -4.9887
    -4.8531  -4.8528  -4.8498  -4.8494  -4.7334  -4.6806  -4.3006  -4.2968
    -3.9818  -3.9782  -3.9680  -3.9527  -3.9471  -3.9370  -3.9314  -3.8993
    -3.7021  -3.7020  -3.6538  -3.6537  -3.2417  -3.2205  -3.2031  -3.1997
    -3.1420  -3.0629  -3.0416  -3.0395  -3.0047  -2.8674  -2.8255  -2.4922
    -2.4882  -2.4326  -2.4285  -2.1262  -2.0374  -2.0321  -1.9958  -1.9934
    -1.9650  -1.9633  -1.7956  -1.7689  -0.3148  -0.1223  -0.1130  -0.0759
    -0.0654   0.5238   0.7844   0.7883   0.9583   1.0124   1.0698   1.0764
     1.2582   1.2642   1.3556   1.3988   1.4186   1.4582   2.0699   2.1535

          k = 0.0333 0.5774 0.0000 ( 48590 PWs)   bands (ev):

   -15.3131 -15.3090 -14.8475 -14.7463 -13.8719 -13.8716 -13.7804 -13.7802
   -13.3971 -13.3946 -12.7373 -12.7332 -12.6253 -12.6213 -12.1146 -12.0709
   -11.8640 -11.8562 -11.3440 -11.2321 -10.3116 -10.3107 -10.2356 -10.2353
   -10.1876  -9.1556  -9.1537  -9.0751  -9.0455  -9.0435  -9.0242  -8.3879
    -8.3843  -8.3657  -8.1557  -8.1537  -8.0380  -8.0355  -7.4183  -7.4181
    -7.2211  -7.2210  -7.0439  -6.8761  -6.5102  -6.2797  -5.4837  -5.4130
    -5.4111  -5.2982  -5.2958  -5.2860  -5.2842  -5.2500  -4.9918  -4.9901
    -4.8532  -4.8530  -4.8477  -4.8474  -4.7589  -4.6534  -4.3042  -4.3003
    -4.0029  -3.9829  -3.9796  -3.9589  -3.9532  -3.9278  -3.9222  -3.8655
    -3.7254  -3.7252  -3.6293  -3.6292  -3.2412  -3.2199  -3.2055  -3.2020
    -3.1816  -3.0420  -3.0400  -3.0227  -3.0116  -2.8872  -2.8035  -2.5230
    -2.5190  -2.4039  -2.3997  -2.1227  -2.0409  -2.0357  -2.0112  -2.0089
    -1.9509  -1.9492  -1.8087  -1.7529  -0.3151  -0.1447  -0.1358  -0.0523
    -0.0415   0.5307   0.7907   0.7947   0.9301   1.0382   1.0669   1.0787
     1.2585   1.2645   1.3263   1.3710   1.4515   1.4890   2.0318   2.1079

          k = 0.0500 0.5774 0.0000 ( 48588 PWs)   bands (ev):

   -15.3120 -15.3079 -14.8719 -14.7200 -13.8941 -13.8939 -13.7568 -13.7566
   -13.3961 -13.3936 -12.7669 -12.7628 -12.5992 -12.5952 -12.1259 -12.0606
   -11.8627 -11.8550 -11.3709 -11.2031 -10.3312 -10.3302 -10.2181 -10.2175
   -10.1859  -9.1791  -9.1771  -9.0887  -9.0157  -9.0129  -9.0117  -8.3873
    -8.3836  -8.3662  -8.1836  -8.1817  -8.0075  -8.0049  -7.4689  -7.4688
    -7.1732  -7.1731  -7.0820  -6.8311  -6.5675  -6.2220  -5.5419  -5.4443
    -5.4424  -5.2970  -5.2946  -5.2545  -5.2526  -5.1919  -4.9940  -4.9922
    -4.8536  -4.8535  -4.8448  -4.8446  -4.7843  -4.6259  -4.3097  -4.3058
    -4.0373  -3.9856  -3.9823  -3.9641  -3.9584  -3.9177  -3.9122  -3.8332
    -3.7487  -3.7485  -3.6050  -3.6048  -3.2400  -3.2210  -3.2187  -3.2080
    -3.2046  -3.0422  -3.0402  -3.0232  -2.9832  -2.9062  -2.7809  -2.5546
    -2.5506  -2.3760  -2.3717  -2.1170  -2.0467  -2.0415  -2.0269  -2.0247
    -1.9373  -1.9356  -1.8225  -1.7403  -0.3155  -0.1667  -0.1580  -0.0285
    -0.0172   0.5423   0.8013   0.8052   0.9013   1.0619   1.0646   1.0808
     1.2590   1.2651   1.2984   1.3441   1.4857   1.5208   1.9939   2.0620

          k = 0.0667 0.5774 0.0000 ( 48594 PWs)   bands (ev):

   -15.3104 -15.3064 -14.8960 -14.6935 -13.9160 -13.9157 -13.7330 -13.7327
   -13.3948 -13.3923 -12.7971 -12.7930 -12.5740 -12.5699 -12.1374 -12.0506
   -11.8611 -11.8533 -11.3974 -11.1738 -10.3510 -10.3499 -10.2014 -10.2003
   -10.1834  -9.2015  -9.1995  -9.1024  -9.0010  -8.9836  -8.9819  -8.3867
    -8.3827  -8.3668  -8.2106  -8.2088  -7.9767  -7.9740  -7.5199  -7.5197
    -7.1257  -7.1256  -7.1189  -6.7849  -6.6247  -6.1643  -5.5994  -5.4755
    -5.4736  -5.2962  -5.2938  -5.2226  -5.2207  -5.1338  -4.9972  -4.9954
    -4.8535  -4.8534  -4.8410  -4.8409  -4.8092  -4.5993  -4.3169  -4.3130
    -4.0726  -3.9895  -3.9861  -3.9682  -3.9625  -3.9066  -3.9011  -3.8014
    -3.7718  -3.7717  -3.5796  -3.5795  -3.2603  -3.2383  -3.2171  -3.2121
    -3.2087  -3.0426  -3.0406  -3.0389  -2.9436  -2.9243  -2.7576  -2.5877
    -2.5838  -2.3491  -2.3448  -2.1093  -2.0547  -2.0496  -2.0428  -2.0406
    -1.9243  -1.9226  -1.8365  -1.7283  -0.3162  -0.1880  -0.1796  -0.0047
     0.0071   0.5585   0.8158   0.8197   0.8720   1.0598   1.0826   1.0869
     1.2597   1.2658   1.2719   1.3183   1.5206   1.5531   1.9559   2.0165

          k = 0.0833 0.5774 0.0000 ( 48584 PWs)   bands (ev):

   -15.3084 -15.3043 -14.9195 -14.6665 -13.9376 -13.9373 -13.7088 -13.7086
   -13.3931 -13.3906 -12.8277 -12.8236 -12.5496 -12.5456 -12.1490 -12.0408
   -11.8588 -11.8511 -11.4236 -11.1440 -10.3708 -10.3697 -10.1875 -10.1837
   -10.1783  -9.2221  -9.2202  -9.1164  -8.9902  -8.9507  -8.9488  -8.3861
    -8.3816  -8.3676  -8.2366  -8.2351  -7.9457  -7.9429  -7.5710  -7.5708
    -7.1536  -7.0794  -7.0792  -6.7377  -6.6815  -6.1067  -5.6582  -5.5064
    -5.5045  -5.2949  -5.2926  -5.1905  -5.1886  -5.0751  -5.0012  -4.9994
    -4.8519  -4.8518  -4.8365  -4.8363  -4.8341  -4.5709  -4.3283  -4.3245
    -4.1083  -3.9943  -3.9909  -3.9713  -3.9656  -3.8947  -3.8892  -3.7953
    -3.7952  -3.7700  -3.5538  -3.5537  -3.2995  -3.2358  -3.2150  -3.2146
    -3.2117  -3.0584  -3.0431  -3.0411  -2.9418  -2.9038  -2.7337  -2.6201
    -2.6161  -2.3231  -2.3188  -2.0998  -2.0647  -2.0598  -2.0589  -2.0566
    -1.9120  -1.9103  -1.8506  -1.7163  -0.3170  -0.2085  -0.2004   0.0192
     0.0316   0.5791   0.8342   0.8381   0.8422   1.0561   1.0842   1.1093
     1.2469   1.2606   1.2668   1.2936   1.5570   1.5866   1.9178   1.9715

          k = 0.1000 0.5774 0.0000 ( 48562 PWs)   bands (ev):

   -15.3060 -15.3019 -14.9427 -14.6391 -13.9587 -13.9585 -13.6843 -13.6841
   -13.3911 -13.3886 -12.8589 -12.8548 -12.5262 -12.5222 -12.1605 -12.0314
   -11.8561 -11.8483 -11.4493 -11.1138 -10.3908 -10.3895 -10.1808 -10.1679
   -10.1659  -9.2417  -9.2398  -9.1301  -8.9796  -8.9166  -8.9148  -8.3855
    -8.3804  -8.3684  -8.2615  -8.2601  -7.9146  -7.9117  -7.6223  -7.6221
    -7.1860  -7.0336  -7.0335  -6.7382  -6.6885  -6.0492  -5.7162  -5.5374
    -5.5355  -5.2937  -5.2913  -5.1586  -5.1567  -5.0179  -5.0060  -5.0043
    -4.8586  -4.8483  -4.8482  -4.8306  -4.8305  -4.5421  -4.3404  -4.3365
    -4.1442  -4.0004  -3.9971  -3.9734  -3.9676  -3.8819  -3.8765  -3.8174
    -3.8172  -3.7401  -3.5281  -3.5279  -3.3385  -3.2339  -3.2200  -3.2167
    -3.2127  -3.0814  -3.0438  -3.0417  -2.9582  -2.8644  -2.7092  -2.6527
    -2.6488  -2.2984  -2.2941  -2.0893  -2.0767  -2.0745  -2.0732  -2.0712
    -1.9005  -1.8989  -1.8635  -1.7039  -0.3180  -0.2282  -0.2203   0.0430
     0.0560   0.6041   0.8118   0.8563   0.8601   1.0523   1.0856   1.1305
     1.2235   1.2616   1.2678   1.2703   1.5941   1.6207   1.8799   1.9272

          k = 0.1167 0.5774 0.0000 ( 48566 PWs)   bands (ev):

   -15.3032 -15.2992 -14.9655 -14.6113 -13.9797 -13.9794 -13.6598 -13.6595
   -13.3885 -13.3860 -12.8905 -12.8864 -12.5038 -12.4998 -12.1722 -12.0225
   -11.8530 -11.8452 -11.4746 -11.0835 -10.4108 -10.4094 -10.1765 -10.1529
   -10.1514  -9.2592  -9.2573  -9.1444  -8.9707  -8.8815  -8.8796  -8.3849
    -8.3788  -8.3689  -8.2851  -8.2840  -7.8835  -7.8805  -7.6729  -7.6727
    -7.2175  -6.9895  -6.9893  -6.7949  -6.6402  -5.9920  -5.7748  -5.5681
    -5.5662  -5.2923  -5.2900  -5.1261  -5.1242  -5.0118  -5.0102  -4.9606
    -4.8821  -4.8445  -4.8444  -4.8248  -4.8247  -4.5129  -4.3550  -4.3511
    -4.1808  -4.0087  -4.0055  -3.9744  -3.9686  -3.8683  -3.8629  -3.8390
    -3.8388  -3.7104  -3.5022  -3.5020  -3.3774  -3.2315  -3.2265  -3.2233
    -3.2104  -3.1071  -3.0446  -3.0424  -2.9736  -2.8252  -2.6862  -2.6841
    -2.6823  -2.2749  -2.2706  -2.0917  -2.0904  -2.0888  -2.0852  -2.0755
    -1.8900  -1.8884  -1.8780  -1.6933  -0.3193  -0.2469  -0.2392   0.0667
     0.0803   0.6334   0.7810   0.8817   0.8854   1.0483   1.0865   1.1504
     1.2016   1.2477   1.2631   1.2692   1.6314   1.6548   1.8418   1.8838

          k = 0.1333 0.5774 0.0000 ( 48556 PWs)   bands (ev):

   -15.3000 -15.2960 -14.9880 -14.5832 -14.0002 -13.9999 -13.6350 -13.6347
   -13.3857 -13.3832 -12.9225 -12.9184 -12.4825 -12.4785 -12.1839 -12.0138
   -11.8494 -11.8416 -11.4995 -11.0527 -10.4306 -10.4292 -10.1721 -10.1390
   -10.1375  -9.2757  -9.2737  -9.1587  -8.9616  -8.8451  -8.8432  -8.3850
    -8.3771  -8.3693  -8.3075  -8.3066  -7.8523  -7.8493  -7.7248  -7.7246
    -7.2456  -6.9456  -6.9455  -6.8511  -6.5904  -5.9350  -5.8325  -5.5988
    -5.5969  -5.2908  -5.2886  -5.0942  -5.0924  -5.0183  -5.0168  -4.9066
    -4.9013  -4.8389  -4.8388  -4.8189  -4.8188  -4.4833  -4.3712  -4.3673
    -4.2175  -4.0173  -4.0141  -3.9744  -3.9687  -3.8600  -3.8596  -3.8538
    -3.8485  -3.6806  -3.4754  -3.4753  -3.4160  -3.2350  -3.2318  -3.2297
    -3.2085  -3.1347  -3.0455  -3.0433  -2.9881  -2.7867  -2.7202  -2.7163
    -2.6584  -2.2533  -2.2489  -2.1068  -2.1056  -2.1042  -2.1005  -2.0626
    -1.8922  -1.8804  -1.8788  -1.6816  -0.3207  -0.2645  -0.2570   0.0901
     0.1045   0.6668   0.7499   0.9101   0.9137   1.0443   1.0870   1.1687
     1.1815   1.2268   1.2645   1.2706   1.6681   1.6879   1.8036   1.8423

          k = 0.1500 0.5774 0.0000 ( 48568 PWs)   bands (ev):

   -15.2964 -15.2923 -15.0100 -14.5549 -14.0204 -14.0201 -13.6100 -13.6097
   -13.3825 -13.3800 -12.9548 -12.9507 -12.4624 -12.4584 -12.1956 -12.0057
   -11.8452 -11.8374 -11.5240 -11.0215 -10.4505 -10.4490 -10.1673 -10.1262
   -10.1245  -9.2901  -9.2881  -9.1731  -8.9536  -8.8077  -8.8058  -8.3857
    -8.3753  -8.3692  -8.3285  -8.3278  -7.8213  -7.8182  -7.7772  -7.7770
    -7.2725  -6.9072  -6.9026  -6.9025  -6.5397  -5.8913  -5.8784  -5.6301
    -5.6283  -5.2893  -5.2873  -5.0627  -5.0608  -5.0256  -5.0241  -4.9276
    -4.8454  -4.8327  -4.8324  -4.8128  -4.8127  -4.4534  -4.3895  -4.3856
    -4.2546  -4.0272  -4.0241  -3.9735  -3.9680  -3.8801  -3.8796  -3.8387
    -3.8333  -3.6513  -3.4546  -3.4493  -3.4490  -3.2441  -3.2409  -3.2292
    -3.2076  -3.1616  -3.0466  -3.0443  -3.0015  -2.7620  -2.7528  -2.7378
    -2.6323  -2.2341  -2.2297  -2.1221  -2.1214  -2.1190  -2.1169  -2.0485
    -1.9064  -1.8720  -1.8704  -1.6716  -0.3224  -0.2809  -0.2735   0.1133
     0.1284   0.7042   0.7184   0.9412   0.9448   1.0403   1.0872   1.1629
     1.1857   1.2072   1.2661   1.2722   1.7010   1.7160   1.7654   1.8061

          k = 0.1667 0.5774 0.0000 ( 48582 PWs)   bands (ev):

   -15.2922 -15.2882 -15.0316 -14.5264 -14.0402 -14.0400 -13.5847 -13.5845
   -13.3790 -13.3765 -12.9875 -12.9834 -12.4433 -12.4393 -12.2073 -11.9981
   -11.8406 -11.8328 -11.5479 -10.9900 -10.4704 -10.4688 -10.1621 -10.1144
   -10.1125  -9.3023  -9.3003  -9.1874  -8.9465  -8.7695  -8.7677  -8.3871
    -8.3733  -8.3684  -8.3479  -8.3474  -7.8294  -7.8292  -7.7905  -7.7874
    -7.2981  -6.9630  -6.8610  -6.8608  -6.4874  -5.9502  -5.8220  -5.6611
    -5.6592  -5.2879  -5.2860  -5.0335  -5.0322  -5.0319  -5.0300  -4.9489
    -4.8257  -4.8256  -4.8063  -4.8062  -4.7894  -4.4234  -4.4103  -4.4064
    -4.2941  -4.0384  -4.0353  -3.9722  -3.9669  -3.8995  -3.8987  -3.8227
    -3.8174  -3.6221  -3.4926  -3.4226  -3.4225  -3.2528  -3.2497  -3.2356
    -3.2086  -3.1805  -3.0478  -3.0454  -3.0138  -2.7908  -2.7862  -2.7050
    -2.6056  -2.2173  -2.2130  -2.1397  -2.1350  -2.1339  -2.1309  -2.0337
    -1.9205  -1.8647  -1.8631  -1.6623  -0.3244  -0.2960  -0.2887   0.1361
     0.1521   0.6866   0.7455   0.9746   0.9780   1.0363   1.0868   1.1465
     1.1892   1.2010   1.2678   1.2740   1.7137   1.7197   1.7272   1.7919

          k = 0.1833 0.5774 0.0000 ( 48592 PWs)   bands (ev):

   -15.2877 -15.2836 -15.0529 -14.4972 -14.0597 -14.0595 -13.5594 -13.5591
   -13.3752 -13.3727 -13.0204 -13.0163 -12.4253 -12.4214 -12.2190 -11.9910
   -11.8356 -11.8278 -11.5715 -10.9582 -10.4901 -10.4884 -10.1562 -10.1040
   -10.1018  -9.3129  -9.3109  -9.2018  -8.9401  -8.7302  -8.7283  -8.3893
    -8.3712  -8.3675  -8.3654  -8.3651  -7.8814  -7.8812  -7.7599  -7.7567
    -7.3204  -7.0184  -6.8200  -6.8199  -6.4354  -6.0075  -5.7662  -5.6903
    -5.6884  -5.2871  -5.2853  -5.0421  -5.0409  -5.0007  -4.9988  -4.9701
    -4.8169  -4.8168  -4.7994  -4.7993  -4.7323  -4.4354  -4.4315  -4.3931
    -4.3319  -4.0508  -4.0479  -3.9714  -3.9668  -3.9165  -3.9150  -3.8061
    -3.8008  -3.5939  -3.5304  -3.3962  -3.3961  -3.2622  -3.2592  -3.2588
    -3.2094  -3.1859  -3.0492  -3.0466  -3.0249  -2.8257  -2.8214  -2.6668
    -2.5784  -2.2064  -2.2026  -2.1581  -2.1535  -2.1415  -2.1382  -2.0184
    -1.9346  -1.8588  -1.8571  -1.6542  -0.3268  -0.3097  -0.3024   0.1586
     0.1754   0.6544   0.7905   1.0097   1.0131   1.0324   1.0858   1.1322
     1.1729   1.2147   1.2698   1.2760   1.6872   1.6910   1.6912   1.8151

          k = 0.2000 0.5774 0.0000 ( 48596 PWs)   bands (ev):

   -15.2828 -15.2788 -15.0736 -14.4676 -14.0790 -14.0787 -13.5337 -13.5334
   -13.3709 -13.3684 -13.0537 -13.0496 -12.4086 -12.4047 -12.2306 -11.9845
   -11.8300 -11.8222 -11.5946 -10.9259 -10.5097 -10.5079 -10.1499 -10.0948
   -10.0924  -9.3219  -9.3199  -9.2161  -8.9346  -8.6902  -8.6884  -8.3923
    -8.3813  -8.3812  -8.3689  -8.3653  -7.9334  -7.9332  -7.7296  -7.7264
    -7.3413  -7.0735  -6.7805  -6.7804  -6.3830  -6.0646  -5.7198  -5.7179
    -5.7111  -5.2863  -5.2847  -5.0510  -5.0500  -4.9906  -4.9695  -4.9677
    -4.8075  -4.8074  -4.7921  -4.7920  -4.6752  -4.4600  -4.4561  -4.3700
    -4.3620  -4.0654  -4.0626  -3.9735  -3.9703  -3.9291  -3.9260  -3.7887
    -3.7835  -3.5680  -3.5642  -3.3692  -3.3690  -3.2922  -3.2734  -3.2705
    -3.2069  -3.1846  -3.0507  -3.0480  -3.0347  -2.8607  -2.8566  -2.6283
    -2.5508  -2.2054  -2.2022  -2.1773  -2.1727  -2.1407  -2.1367  -2.0027
    -1.9486  -1.8542  -1.8524  -1.6464  -0.3297  -0.3217  -0.3144   0.1806
     0.1983   0.6220   0.8388   1.0287   1.0462   1.0494   1.0838   1.1203
     1.1583   1.2267   1.2719   1.2781   1.6487   1.6529   1.6542   1.8527

          k = 0.2167 0.5774 0.0000 ( 48594 PWs)   bands (ev):

   -15.2774 -15.2733 -15.0941 -14.4377 -14.0978 -14.0976 -13.5078 -13.5075
   -13.3663 -13.3637 -13.0870 -13.0829 -12.3932 -12.3893 -12.2422 -11.9786
   -11.8240 -11.8162 -11.6173 -10.8934 -10.5290 -10.5271 -10.1430 -10.0872
   -10.0845  -9.3292  -9.3271  -9.2303  -8.9298  -8.6500  -8.6481  -8.3976
    -8.3952  -8.3932  -8.3662  -8.3630  -7.9853  -7.9851  -7.6996  -7.6963
    -7.3591  -7.1283  -6.7423  -6.7422  -6.3293  -6.1216  -5.7495  -5.7477
    -5.6568  -5.2861  -5.2847  -5.0600  -5.0592  -5.0104  -4.9381  -4.9362
    -4.7964  -4.7962  -4.7845  -4.7844  -4.6185  -4.4871  -4.4832  -4.4084
    -4.3305  -4.0807  -4.0779  -3.9817  -3.9802  -3.9335  -3.9288  -3.7708
    -3.7656  -3.6053  -3.5370  -3.3421  -3.3420  -3.3297  -3.2837  -3.2809
    -3.2028  -3.1808  -3.0524  -3.0497  -3.0429  -2.8961  -2.8921  -2.5900
    -2.5227  -2.2134  -2.2106  -2.1969  -2.1925  -2.1324  -2.1279  -1.9871
    -1.9630  -1.8510  -1.8491  -1.6391  -0.3346  -0.3313  -0.3240   0.2021
     0.2208   0.5893   0.8904   1.0254   1.0806   1.0833   1.0863   1.1110
     1.1454   1.2370   1.2742   1.2805   1.6093   1.6129   1.6152   1.8943

          k = 0.2333 0.5774 0.0000 ( 48580 PWs)   bands (ev):

   -15.2715 -15.2675 -15.1141 -14.4076 -14.1163 -14.1161 -13.4817 -13.4815
   -13.3612 -13.3587 -13.1206 -13.1165 -12.3790 -12.3751 -12.2537 -11.9734
   -11.8174 -11.8096 -11.6396 -10.8605 -10.5482 -10.5462 -10.1356 -10.0811
   -10.0780  -9.3347  -9.3326  -9.2445  -8.9260  -8.6082  -8.6064  -8.4081
    -8.4070  -8.3984  -8.3630  -8.3601  -8.0366  -8.0364  -7.6700  -7.6667
    -7.3750  -7.1827  -6.7049  -6.7048  -6.2759  -6.1790  -5.7789  -5.7771
    -5.6035  -5.2868  -5.2857  -5.0690  -5.0684  -5.0293  -4.9066  -4.9047
    -4.7846  -4.7845  -4.7767  -4.7766  -4.5621  -4.5158  -4.5120  -4.4474
    -4.2987  -4.0974  -4.0948  -3.9958  -3.9952  -3.9308  -3.9251  -3.7521
    -3.7470  -3.6422  -3.5104  -3.3695  -3.3142  -3.3140  -3.2944  -3.2917
    -3.1974  -3.1757  -3.0549  -3.0518  -3.0488  -2.9312  -2.9271  -2.5519
    -2.4942  -2.2258  -2.2232  -2.2167  -2.2124  -2.1209  -2.1162  -1.9791
    -1.9687  -1.8492  -1.8472  -1.6328  -0.3425  -0.3380  -0.3304   0.2230
     0.2427   0.5563   0.9445   1.0228   1.0763   1.1043   1.1204   1.1231
     1.1345   1.2456   1.2769   1.2832   1.5696   1.5727   1.5759   1.9384

          k = 0.2500 0.5774 0.0000 ( 48562 PWs)   bands (ev):

   -15.2652 -15.2612 -15.1337 -14.3770 -14.1346 -14.1343 -13.4554 -13.4552
   -13.3559 -13.3534 -13.1543 -13.1502 -12.3662 -12.3623 -12.2651 -11.9688
   -11.8104 -11.8026 -11.6613 -10.8274 -10.5671 -10.5651 -10.1277 -10.0766
   -10.0733  -9.3378  -9.3357  -9.2586  -8.9227  -8.5657  -8.5638  -8.4177
    -8.4165  -8.4029  -8.3600  -8.3572  -8.0871  -8.0869  -7.6409  -7.6375
    -7.3879  -7.2369  -6.6693  -6.6692  -6.2344  -6.2221  -5.8079  -5.8061
    -5.5513  -5.2887  -5.2878  -5.0776  -5.0772  -5.0471  -4.8757  -4.8739
    -4.7723  -4.7721  -4.7676  -4.7674  -4.5475  -4.5436  -4.5059  -4.4860
    -4.2664  -4.1149  -4.1123  -4.0124  -4.0121  -3.9237  -3.9177  -3.7329
    -3.7279  -3.6787  -3.4844  -3.4107  -3.3063  -3.3037  -3.2864  -3.2863
    -3.1921  -3.1705  -3.0589  -3.0543  -3.0516  -2.9666  -2.9626  -2.5141
    -2.4653  -2.2401  -2.2378  -2.2364  -2.2324  -2.1087  -2.1037  -1.9916
    -1.9535  -1.8490  -1.8468  -1.6258  -0.3496  -0.3445  -0.3346   0.2434
     0.2641   0.5231   0.9970   1.0243   1.0719   1.0999   1.1257   1.1564
     1.1589   1.2526   1.2802   1.2865   1.5300   1.5327   1.5365   1.9833

          k = 0.2667 0.5774 0.0000 ( 48562 PWs)   bands (ev):

   -15.2584 -15.2544 -15.1526 -14.3461 -14.1521 -14.1518 -13.4292 -13.4290
   -13.3502 -13.3476 -13.1882 -13.1841 -12.3548 -12.3510 -12.2765 -11.9649
   -11.8030 -11.7951 -11.6827 -10.7938 -10.5858 -10.5838 -10.1191 -10.0740
   -10.0703  -9.3397  -9.3376  -9.2725  -8.9197  -8.5226  -8.5208  -8.4252
    -8.4238  -8.4075  -8.3566  -8.3539  -8.1390  -8.1389  -7.6122  -7.6089
    -7.3984  -7.2906  -6.6349  -6.6348  -6.2908  -6.1681  -5.8383  -5.8364
    -5.5008  -5.2922  -5.2915  -5.0855  -5.0850  -5.0634  -4.8461  -4.8442
    -4.7604  -4.7601  -4.7566  -4.7563  -4.5802  -4.5763  -4.5253  -4.4478
    -4.2338  -4.1345  -4.1321  -4.0296  -4.0294  -3.9141  -3.9079  -3.7154
    -3.7130  -3.7077  -3.4573  -3.4528  -3.3159  -3.3135  -3.2593  -3.2591
    -3.1856  -3.1641  -3.0628  -3.0564  -3.0535  -3.0031  -2.9991  -2.4766
    -2.4360  -2.2565  -2.2552  -2.2532  -2.2519  -2.0977  -2.0927  -2.0051
    -1.9372  -1.8504  -1.8481  -1.6192  -0.3552  -0.3499  -0.3383   0.2631
     0.2848   0.4897   1.0127   1.0567   1.0741   1.0988   1.1194   1.1900
     1.1921   1.2581   1.2846   1.2909   1.4905   1.4932   1.4972   2.0176

          k = 0.2833 0.5774 0.0000 ( 48550 PWs)   bands (ev):

   -15.2513 -15.2473 -15.1714 -14.3150 -14.1695 -14.1692 -13.4027 -13.4025
   -13.3441 -13.3415 -13.2223 -13.2181 -12.3448 -12.3409 -12.2876 -11.9618
   -11.7950 -11.7872 -11.7034 -10.7601 -10.6043 -10.6022 -10.1100 -10.0730
   -10.0691  -9.3395  -9.3374  -9.2864  -8.9176  -8.4792  -8.4774  -8.4301
    -8.4285  -8.4127  -8.3532  -8.3506  -8.1888  -8.1886  -7.5841  -7.5807
    -7.4061  -7.3439  -6.6018  -6.6017  -6.3467  -6.1138  -5.8670  -5.8652
    -5.4523  -5.2979  -5.2971  -5.0924  -5.0916  -5.0781  -4.8157  -4.8139
    -4.7514  -4.7513  -4.7409  -4.7407  -4.6141  -4.6101  -4.5662  -4.3923
    -4.2009  -4.1557  -4.1534  -4.0472  -4.0470  -3.9026  -3.8963  -3.7507
    -3.6928  -3.6878  -3.4956  -3.4324  -3.3278  -3.3255  -3.2317  -3.2315
    -3.1791  -3.1577  -3.0656  -3.0583  -3.0553  -3.0393  -3.0352  -2.4394
    -2.4064  -2.2761  -2.2724  -2.2706  -2.2679  -2.0872  -2.0820  -2.0190
    -1.9207  -1.8534  -1.8508  -1.6153  -0.3590  -0.3538  -0.3419   0.2820
     0.3048   0.4564   1.0120   1.0601   1.0889   1.1115   1.1390   1.2188
     1.2209   1.2619   1.2915   1.2975   1.4514   1.4543   1.4580   2.0570

          k = 0.3000 0.5774 0.0000 ( 48566 PWs)   bands (ev):

   -15.2438 -15.2398 -15.1897 -14.2835 -14.1866 -14.1863 -13.3761 -13.3759
   -13.3377 -13.3350 -13.2564 -13.2522 -12.3361 -12.3322 -12.2986 -11.9595
   -11.7867 -11.7788 -11.7238 -10.7260 -10.6225 -10.6203 -10.1005 -10.0739
   -10.0697  -9.3376  -9.3355  -9.3001  -8.9161  -8.4393  -8.4376  -8.4283
    -8.4264  -8.4183  -8.3496  -8.3472  -8.2398  -8.2397  -7.5566  -7.5532
    -7.4118  -7.3969  -6.5705  -6.5704  -6.4026  -6.0593  -5.8956  -5.8938
    -5.4069  -5.3063  -5.3053  -5.0980  -5.0968  -5.0901  -4.7856  -4.7838
    -4.7427  -4.7426  -4.7239  -4.7237  -4.6505  -4.6466  -4.6061  -4.3372
    -4.1792  -4.1770  -4.1677  -4.0647  -4.0645  -3.8895  -3.8831  -3.7859
    -3.6720  -3.6670  -3.5389  -3.4081  -3.3397  -3.3375  -3.2041  -3.2038
    -3.1725  -3.1512  -3.0761  -3.0724  -3.0654  -3.0599  -3.0569  -2.4026
    -2.3765  -2.2953  -2.2917  -2.2861  -2.2835  -2.0781  -2.0728  -2.0321
    -1.9041  -1.8580  -1.8552  -1.6106  -0.3611  -0.3561  -0.3456   0.3001
     0.3237   0.4234   1.0108   1.0577   1.0878   1.1096   1.2017   1.2398
     1.2426   1.2640   1.3031   1.3083   1.4127   1.4160   1.4191   2.0949

          k = 0.3167 0.5774 0.0000 ( 48554 PWs)   bands (ev):

   -15.2359 -15.2318 -15.2075 -14.2516 -14.2032 -14.2030 -13.3496 -13.3494
   -13.3308 -13.3281 -13.2904 -13.2862 -12.3288 -12.3249 -12.3094 -11.9581
   -11.7780 -11.7700 -11.7435 -10.6916 -10.6404 -10.6381 -10.0907 -10.0765
   -10.0719  -9.3339  -9.3317  -9.3135  -8.9151  -8.4348  -8.4327  -8.4243
    -8.3879  -8.3861  -8.3460  -8.3436  -8.2906  -8.2905  -7.5296  -7.5262
    -7.4494  -7.4147  -6.5410  -6.5409  -6.4579  -6.0047  -5.9239  -5.9220
    -5.3657  -5.3173  -5.3158  -5.1015  -5.1001  -5.0975  -4.7559  -4.7542
    -4.7338  -4.7336  -4.7052  -4.7051  -4.6880  -4.6840  -4.6462  -4.2825
    -4.2024  -4.2004  -4.1327  -4.0820  -4.0818  -3.8749  -3.8684  -3.8205
    -3.6508  -3.6458  -3.5825  -3.3844  -3.3508  -3.3487  -3.1768  -3.1765
    -3.1649  -3.1437  -3.1110  -3.1069  -3.0662  -3.0616  -3.0585  -2.3663
    -2.3462  -2.3139  -2.3105  -2.3015  -2.2990  -2.0699  -2.0649  -2.0447
    -1.8874  -1.8641  -1.8611  -1.6088  -0.3616  -0.3572  -0.3489   0.3169
     0.3404   0.3925   1.0099   1.0561   1.0864   1.1080   1.2511   1.2544
     1.2640   1.2713   1.3198   1.3239   1.3745   1.3787   1.3810   2.1297

          k = 0.3333 0.5774 0.0000 ( 48552 PWs)   bands (ev):

   -15.2288 -15.2253 -15.2218 -14.2197 -14.2194 -14.2192 -13.3253 -13.3246
   -13.3244 -13.3217 -13.3214 -13.3176 -12.3242 -12.3197 -12.3180 -11.9576
   -11.7711 -11.7634 -11.7577 -10.6587 -10.6570 -10.6547 -10.0831 -10.0796
   -10.0749  -9.3294  -9.3266  -9.3260  -8.9149  -8.4333  -8.4309  -8.4293
    -8.3426  -8.3425  -8.3420  -8.3407  -8.3395  -8.3385  -7.5043  -7.5020
    -7.4984  -7.4158  -6.5128  -6.5127  -6.5127  -5.9518  -5.9512  -5.9488
    -5.3324  -5.3301  -5.3292  -5.1032  -5.1017  -5.0993  -4.7271  -4.7270
    -4.7269  -4.7250  -4.7227  -4.7214  -4.6862  -4.6862  -4.6857  -4.2294
    -4.2273  -4.2261  -4.0990  -4.0988  -4.0987  -3.8609  -3.8551  -3.8496
    -3.6307  -3.6265  -3.6222  -3.3624  -3.3616  -3.3593  -3.1579  -3.1573
    -3.1567  -3.1377  -3.1375  -3.1329  -3.0656  -3.0623  -3.0594  -2.3330
    -2.3309  -2.3274  -2.3181  -2.3147  -2.3140  -2.0624  -2.0620  -2.0526
    -1.8732  -1.8703  -1.8676  -1.6082  -0.3610  -0.3577  -0.3505   0.3277
     0.3472   0.3756   1.0096   1.0556   1.0858   1.1075   1.2554   1.2592
     1.2631   1.3345   1.3375   1.3414   1.3424   1.3444   1.3449   2.1572

          k = 0.3167 0.5485 0.0000 ( 48558 PWs)   bands (ev):

   -15.2592 -15.2091 -15.2050 -14.2510 -14.2508 -14.1545 -13.3928 -13.3887
   -13.3083 -13.3060 -13.2689 -13.2685 -12.3419 -12.3142 -12.3107 -11.9596
   -11.8024 -11.7472 -11.7396 -10.6922 -10.6898 -10.5868 -10.0966 -10.0914
   -10.0560  -9.3528  -9.3113  -9.3092  -8.9159  -8.4458  -8.4429  -8.4427
    -8.4189  -8.4163  -8.3343  -8.3319  -8.2479  -8.2461  -7.6049  -7.4527
    -7.4493  -7.4119  -6.6228  -6.4604  -6.4603  -6.0053  -6.0035  -5.8401
    -5.3685  -5.3660  -5.2897  -5.1000  -5.0973  -5.0815  -4.8068  -4.8030
    -4.7685  -4.7070  -4.7069  -4.6655  -4.6635  -4.6419  -4.6417  -4.2860
    -4.2843  -4.1324  -4.1322  -4.1222  -4.0314  -3.9209  -3.8217  -3.8151
    -3.7141  -3.5843  -3.5794  -3.3847  -3.3831  -3.3170  -3.2215  -3.2179
    -3.1406  -3.1199  -3.0900  -3.0894  -3.0675  -3.0637  -3.0512  -2.3661
    -2.3632  -2.3472  -2.3446  -2.2600  -2.2542  -2.0846  -2.0532  -2.0453
    -1.8921  -1.8885  -1.8364  -1.6107  -0.3676  -0.3510  -0.3444   0.2771
     0.3692   0.4008   1.0110   1.0573   1.0883   1.1097   1.2228   1.2568
     1.2616   1.2707   1.2726   1.2895   1.3685   1.3700   1.4911   2.1038

          k = 0.3000 0.5196 0.0000 ( 48554 PWs)   bands (ev):

   -15.2912 -15.1894 -15.1853 -14.2810 -14.2808 -14.0881 -13.4609 -13.4568
   -13.2916 -13.2891 -13.2151 -13.2148 -12.3621 -12.3115 -12.3080 -11.9657
   -11.8380 -11.7252 -11.7175 -10.7250 -10.7225 -10.5156 -10.1186 -10.1129
   -10.0309  -9.3777  -9.2876  -9.2854  -8.9175  -8.5400  -8.5398  -8.4622
    -8.3988  -8.3956  -8.3256  -8.3232  -8.1532  -8.1513  -7.7062  -7.4051
    -7.4016  -7.3992  -6.7315  -6.4140  -6.4139  -6.0574  -6.0556  -5.7293
    -5.4159  -5.4130  -5.2865  -5.0911  -5.0880  -5.0267  -4.8901  -4.8863
    -4.8493  -4.6875  -4.6874  -4.6062  -4.6042  -4.5939  -4.5936  -4.3502
    -4.3488  -4.1639  -4.1637  -4.0177  -4.0013  -3.9464  -3.8009  -3.7795
    -3.7729  -3.5385  -3.5338  -3.4075  -3.4062  -3.2931  -3.2895  -3.2746
    -3.1214  -3.1006  -3.0706  -3.0665  -3.0330  -3.0330  -3.0318  -2.3970
    -2.3945  -2.3765  -2.3739  -2.1933  -2.1916  -2.1087  -2.0488  -2.0389
    -1.9179  -1.9139  -1.8021  -1.6209  -0.3789  -0.3364  -0.3301   0.2083
     0.3971   0.4316   1.0156   1.0607   1.0962   1.1165   1.1461   1.2041
     1.2056   1.2484   1.2539   1.2719   1.3819   1.3829   1.6482   2.0202

          k = 0.2833 0.4907 0.0000 ( 48558 PWs)   bands (ev):

   -15.3215 -15.1677 -15.1637 -14.3095 -14.3092 -14.0209 -13.5288 -13.5247
   -13.2733 -13.2708 -13.1615 -13.1612 -12.3815 -12.3139 -12.3104 -11.9760
   -11.8720 -11.7013 -11.6936 -10.7563 -10.7538 -10.4436 -10.1474 -10.1412
   -10.0037  -9.4011  -9.2575  -9.2553  -8.9185  -8.6361  -8.6359  -8.4807
    -8.3684  -8.3648  -8.3171  -8.3148  -8.0552  -8.0534  -7.8059  -7.3785
    -7.3602  -7.3567  -6.8395  -6.3735  -6.3734  -6.1083  -6.1065  -5.6198
    -5.4721  -5.4690  -5.3021  -5.0765  -5.0732  -4.9779  -4.9741  -4.9575
    -4.9335  -4.6681  -4.6680  -4.5495  -4.5475  -4.5421  -4.5418  -4.4196
    -4.4185  -4.1938  -4.1936  -4.0575  -3.9135  -3.8858  -3.8826  -3.7322
    -3.7254  -3.4926  -3.4882  -3.4284  -3.4274  -3.3629  -3.3594  -3.2346
    -3.1011  -3.0808  -3.0719  -3.0677  -3.0035  -2.9768  -2.9765  -2.4246
    -2.4225  -2.4047  -2.4022  -2.1361  -2.1309  -2.1258  -2.0498  -2.0334
    -1.9489  -1.9445  -1.7674  -1.6345  -0.3922  -0.3158  -0.3097   0.1380
     0.4220   0.4598   1.0235   1.0581   1.0632   1.1073   1.1215   1.1465
     1.1525   1.2292   1.2343   1.2594   1.3807   1.3826   1.8116   1.9325

          k = 0.2667 0.4619 0.0000 ( 48580 PWs)   bands (ev):

   -15.3503 -15.1445 -15.1404 -14.3365 -14.3363 -13.9523 -13.5961 -13.5920
   -13.2539 -13.2514 -13.1081 -13.1078 -12.4003 -12.3210 -12.3176 -11.9907
   -11.9040 -11.6754 -11.6677 -10.7862 -10.7836 -10.3709 -10.1820 -10.1754
    -9.9743  -9.4242  -9.2213  -9.2191  -8.9178  -8.7302  -8.7300  -8.5017
    -8.3292  -8.3253  -8.3084  -8.3061  -7.9542  -7.9523  -7.9039  -7.3501
    -7.3186  -7.3151  -6.9456  -6.3385  -6.3384  -6.1560  -6.1541  -5.5357
    -5.5324  -5.5144  -5.3240  -5.0700  -5.0662  -5.0577  -5.0543  -5.0171
    -4.8871  -4.6489  -4.6488  -4.4959  -4.4949  -4.4937  -4.4917  -4.4883
    -4.4878  -4.2227  -4.2225  -4.1179  -3.9685  -3.8140  -3.8110  -3.6799
    -3.6730  -3.4617  -3.4586  -3.4492  -3.4484  -3.4161  -3.4126  -3.1969
    -3.0808  -3.0727  -3.0678  -3.0596  -2.9649  -2.9217  -2.9214  -2.4489
    -2.4472  -2.4318  -2.4294  -2.1540  -2.0952  -2.0624  -2.0557  -2.0155
    -1.9843  -1.9794  -1.7325  -1.6516  -0.4075  -0.2901  -0.2842   0.0671
     0.4435   0.4846   0.9651   1.0325   1.0625   1.0780   1.0828   1.1406
     1.1585   1.1971   1.2018   1.2461   1.3719   1.3748   1.8448   1.8449

          k = 0.2500 0.4330 0.0000 ( 48552 PWs)   bands (ev):

   -15.3772 -15.1195 -15.1154 -14.3619 -14.3616 -13.8828 -13.6628 -13.6587
   -13.2331 -13.2306 -13.0553 -13.0550 -12.4181 -12.3324 -12.3291 -12.0101
   -11.9342 -11.6477 -11.6399 -10.8144 -10.8118 -10.2976 -10.2217 -10.2148
    -9.9424  -9.4463  -9.1785  -9.1763  -8.9151  -8.8213  -8.8210  -8.5250
    -8.2997  -8.2974  -8.2821  -8.2780  -7.9998  -7.8516  -7.8498  -7.3156
    -7.2802  -7.2766  -7.0506  -6.3075  -6.3074  -6.2005  -6.1987  -5.6057
    -5.6023  -5.4099  -5.3476  -5.1642  -5.1605  -5.1021  -5.0352  -5.0317
    -4.8208  -4.6311  -4.6310  -4.5760  -4.5752  -4.4378  -4.4358  -4.4309
    -4.4305  -4.2491  -4.2489  -4.1766  -4.0481  -3.7376  -3.7166  -3.6229
    -3.6160  -3.5135  -3.5098  -3.4697  -3.4692  -3.3860  -3.3814  -3.1579
    -3.0712  -3.0667  -3.0573  -3.0373  -2.9159  -2.8659  -2.8657  -2.4702
    -2.4689  -2.4577  -2.4552  -2.1743  -2.0874  -2.0668  -2.0239  -2.0191
    -2.0018  -1.9677  -1.7008  -1.6699  -0.4248  -0.2602  -0.2543  -0.0039
     0.4612   0.5058   0.8677   1.0160   1.0239   1.0630   1.0655   1.1518
     1.1561   1.1674   1.1848   1.2319   1.3608   1.3646   1.7598   1.7599

          k = 0.2333 0.4041 0.0000 ( 48586 PWs)   bands (ev):

   -15.4026 -15.0930 -15.0889 -14.3855 -14.3853 -13.8124 -13.7290 -13.7249
   -13.2108 -13.2082 -13.0033 -13.0030 -12.4351 -12.3481 -12.3448 -12.0343
   -11.9624 -11.6181 -11.6104 -10.8409 -10.8382 -10.2660 -10.2594 -10.2230
    -9.9087  -9.4684  -9.1321  -9.1299  -8.9119  -8.9101  -8.9080  -8.5507
    -8.2900  -8.2877  -8.2278  -8.2235  -8.0942  -7.7479  -7.7461  -7.2763
    -7.2449  -7.2414  -7.1537  -6.2811  -6.2810  -6.2444  -6.2425  -5.6816
    -5.6781  -5.3719  -5.3104  -5.2583  -5.2546  -5.1867  -5.0104  -5.0069
    -4.7607  -4.6623  -4.6617  -4.6148  -4.6147  -4.3843  -4.3824  -4.3700
    -4.3697  -4.2742  -4.2740  -4.2329  -4.1241  -3.6629  -3.6246  -3.5807
    -3.5770  -3.5618  -3.5548  -3.4898  -3.4896  -3.3379  -3.3334  -3.1258
    -3.0676  -3.0627  -3.0326  -3.0124  -2.8564  -2.8121  -2.8119  -2.4890
    -2.4880  -2.4822  -2.4797  -2.1957  -2.0985  -2.0836  -2.0660  -2.0610
    -1.9443  -1.9068  -1.7113  -1.6530  -0.4442  -0.2269  -0.2212  -0.0749
     0.4750   0.5229   0.7662   0.9725   0.9759   1.0602   1.0833   1.0955
     1.0995   1.2011   1.2166   1.2177   1.3490   1.3533   1.6776   1.6778

          k = 0.2167 0.3753 0.0000 ( 48598 PWs)   bands (ev):

   -15.4262 -15.0645 -15.0605 -14.4077 -14.4074 -13.7945 -13.7904 -13.7411
   -13.1873 -13.1847 -12.9523 -12.9520 -12.4510 -12.3673 -12.3641 -12.0632
   -11.9889 -11.5867 -11.5790 -10.8659 -10.8631 -10.3137 -10.3066 -10.1490
    -9.8726  -9.4883  -9.0807  -9.0785  -8.9956  -8.9954  -8.9015  -8.5792
    -8.2821  -8.2799  -8.1871  -8.1671  -8.1623  -7.6417  -7.6399  -7.2551
    -7.2309  -7.2127  -7.2092  -6.2852  -6.2835  -6.2584  -6.2583  -5.7623
    -5.7587  -5.3945  -5.3548  -5.3512  -5.2722  -5.2091  -4.9828  -4.9793
    -4.7526  -4.7519  -4.7074  -4.5990  -4.5990  -4.3314  -4.3295  -4.3096
    -4.3093  -4.2974  -4.2972  -4.2866  -4.1962  -3.6494  -3.6457  -3.5874
    -3.5351  -3.5080  -3.5078  -3.4970  -3.4900  -3.2882  -3.2839  -3.0952
    -3.0617  -3.0565  -3.0073  -2.9874  -2.7865  -2.7593  -2.7591  -2.5064
    -2.5058  -2.5042  -2.5024  -2.2142  -2.1172  -2.1120  -2.1058  -2.1013
    -1.8899  -1.8414  -1.7450  -1.6160  -0.4659  -0.1913  -0.1858  -0.1455
     0.4847   0.5354   0.6603   0.9310   0.9333   1.0318   1.0355   1.0566
     1.1101   1.2010   1.2398   1.2555   1.3355   1.3400   1.6001   1.6004

          k = 0.2000 0.3464 0.0000 ( 48594 PWs)   bands (ev):

   -15.4480 -15.0345 -15.0305 -14.4282 -14.4280 -13.8592 -13.8551 -13.6691
   -13.1625 -13.1599 -12.9027 -12.9024 -12.4658 -12.3898 -12.3866 -12.0967
   -12.0134 -11.5535 -11.5457 -10.8891 -10.8863 -10.3642 -10.3569 -10.0741
    -9.8344  -9.5064  -9.0771  -9.0770  -9.0256  -9.0234  -8.8881  -8.6103
    -8.2771  -8.2745  -8.2723  -8.1007  -8.0960  -7.5340  -7.5322  -7.3544
    -7.1835  -7.1803  -7.1800  -6.3228  -6.3211  -6.2398  -6.2397  -5.8475
    -5.8438  -5.4511  -5.4474  -5.4160  -5.3585  -5.1126  -4.9533  -4.9498
    -4.8471  -4.8464  -4.6614  -4.5838  -4.5838  -4.3375  -4.3190  -4.3188
    -4.2796  -4.2777  -4.2639  -4.2499  -4.2495  -3.7176  -3.7139  -3.5274
    -3.5271  -3.5093  -3.4480  -3.4293  -3.4223  -3.2382  -3.2339  -3.0668
    -3.0531  -3.0478  -2.9802  -2.9604  -2.7082  -2.7081  -2.7065  -2.5276
    -2.5255  -2.5197  -2.5193  -2.2321  -2.1585  -2.1533  -2.1379  -2.1252
    -1.8388  -1.7851  -1.7743  -1.5767  -0.4900  -0.2164  -0.1540  -0.1485
     0.4898   0.5427   0.5502   0.8948   0.8965   0.9636   0.9671   1.0517
     1.1424   1.1851   1.2828   1.2977   1.3182   1.3226   1.5288   1.5295

          k = 0.1833 0.3175 0.0000 ( 48596 PWs)   bands (ev):

   -15.4682 -15.0029 -14.9988 -14.4471 -14.4468 -13.9231 -13.9190 -13.5970
   -13.1366 -13.1340 -12.8548 -12.8545 -12.4796 -12.4151 -12.4120 -12.1349
   -12.0360 -11.5186 -11.5108 -10.9106 -10.9078 -10.4169 -10.4095  -9.9992
    -9.7939  -9.5231  -9.1545  -9.1543  -8.9679  -8.9657  -8.8706  -8.6442
    -8.3657  -8.2679  -8.2658  -8.0292  -8.0245  -7.4528  -7.4247  -7.4229
    -7.1574  -7.1539  -7.1265  -6.3566  -6.3548  -6.2241  -6.2241  -5.9364
    -5.9326  -5.5476  -5.5440  -5.4454  -5.4368  -5.0200  -4.9454  -4.9447
    -4.9212  -4.9175  -4.6222  -4.5679  -4.5678  -4.3853  -4.3387  -4.3385
    -4.3268  -4.2299  -4.2281  -4.1894  -4.1891  -3.7853  -3.7816  -3.5476
    -3.5472  -3.4325  -3.3682  -3.3593  -3.3523  -3.1883  -3.1841  -3.0421
    -3.0406  -3.0363  -2.9518  -2.9322  -2.6588  -2.6587  -2.6175  -2.5480
    -2.5458  -2.5333  -2.5332  -2.2492  -2.2063  -2.2008  -2.1634  -2.1506
    -1.8297  -1.7913  -1.7064  -1.5358  -0.5166  -0.2861  -0.1162  -0.1109
     0.4360   0.4901   0.5443   0.8643   0.8657   0.8940   0.8973   1.0451
     1.1694   1.1800   1.2944   1.2983   1.3289   1.3432   1.4665   1.4678

          k = 0.1667 0.2887 0.0000 ( 48552 PWs)   bands (ev):

   -15.4866 -14.9696 -14.9655 -14.4642 -14.4640 -13.9859 -13.9818 -13.5235
   -13.1094 -13.1068 -12.8088 -12.8085 -12.4924 -12.4428 -12.4397 -12.1775
   -12.0566 -11.4818 -11.4741 -10.9301 -10.9272 -10.4714 -10.4638  -9.9240
    -9.7511  -9.5387  -9.2279  -9.2277  -8.9073  -8.9051  -8.8479  -8.6810
    -8.4522  -8.2624  -8.2603  -7.9533  -7.9485  -7.5465  -7.3147  -7.3129
    -7.1339  -7.1304  -7.0687  -6.3861  -6.3843  -6.2100  -6.2100  -6.0286
    -6.0247  -5.6400  -5.6365  -5.5292  -5.4558  -5.0474  -5.0465  -4.9353
    -4.8874  -4.8838  -4.5893  -4.5529  -4.5528  -4.4300  -4.3847  -4.3563
    -4.3561  -4.1829  -4.1811  -4.1298  -4.1294  -3.8516  -3.8479  -3.5657
    -3.5651  -3.3536  -3.2942  -3.2879  -3.2809  -3.1389  -3.1348  -3.0276
    -3.0220  -3.0162  -2.9217  -2.9024  -2.6129  -2.6127  -2.5674  -2.5650
    -2.5464  -2.5460  -2.5194  -2.2644  -2.2549  -2.2493  -2.1925  -2.1796
    -1.8784  -1.7475  -1.6381  -1.4935  -0.5459  -0.3553  -0.0787  -0.0735
     0.3180   0.4850   0.5393   0.8199   0.8229   0.8448   0.8459   1.0362
     1.1540   1.2227   1.2620   1.2649   1.3762   1.3897   1.4150   1.4173

          k = 0.1500 0.2598 0.0000 ( 48554 PWs)   bands (ev):

   -15.5031 -14.9346 -14.9306 -14.4800 -14.4798 -14.0477 -14.0436 -13.4496
   -13.0810 -13.0784 -12.7654 -12.7651 -12.5041 -12.4724 -12.4695 -12.2241
   -12.0752 -11.4434 -11.4356 -10.9480 -10.9451 -10.5269 -10.5193  -9.8492
    -9.7064  -9.5528  -9.2962  -9.2961  -8.8455  -8.8432  -8.8209  -8.7207
    -8.5370  -8.2587  -8.2565  -7.8731  -7.8683  -7.6408  -7.2025  -7.2007
    -7.1134  -7.1099  -7.0081  -6.4113  -6.4094  -6.1997  -6.1997  -6.1235
    -6.1196  -5.7324  -5.7289  -5.6151  -5.4729  -5.1520  -5.1511  -4.8561
    -4.8511  -4.8475  -4.5622  -4.5409  -4.5408  -4.4713  -4.4374  -4.3734
    -4.3731  -4.1373  -4.1355  -4.0742  -4.0739  -3.9170  -3.9134  -3.5855
    -3.5848  -3.2747  -3.2229  -3.2161  -3.2091  -3.0902  -3.0863  -3.0105
    -3.0048  -2.9933  -2.8907  -2.8715  -2.5852  -2.5829  -2.5709  -2.5706
    -2.5577  -2.5572  -2.4148  -2.3033  -2.2977  -2.2788  -2.2243  -2.2111
    -1.9318  -1.7075  -1.5699  -1.4498  -0.5780  -0.4237  -0.0419  -0.0369
     0.1966   0.4739   0.5267   0.7511   0.7543   0.8281   0.8287   1.0238
     1.1393   1.2206   1.2228   1.2712   1.3748   1.3779   1.4022   1.4115

          k = 0.1333 0.2309 0.0000 ( 48564 PWs)   bands (ev):

   -15.5181 -14.8980 -14.8940 -14.4942 -14.4939 -14.1085 -14.1044 -13.3755
   -13.0517 -13.0491 -12.7247 -12.7244 -12.5151 -12.5036 -12.5010 -12.2748
   -12.0922 -11.4033 -11.3955 -10.9640 -10.9611 -10.5834 -10.5757  -9.7744
    -9.6595  -9.5658  -9.3590  -9.3588  -8.7906  -8.7839  -8.7815  -8.7624
    -8.6193  -8.2574  -8.2553  -7.7895  -7.7847  -7.7335  -7.0954  -7.0919
    -7.0894  -7.0877  -6.9450  -6.4314  -6.4295  -6.2207  -6.2167  -6.1910
    -6.1909  -5.8228  -5.8193  -5.7004  -5.4881  -5.2573  -5.2563  -4.8133
    -4.8098  -4.7823  -4.5401  -4.5287  -4.5286  -4.5089  -4.4846  -4.3883
    -4.3881  -4.0928  -4.0911  -4.0220  -4.0217  -3.9816  -3.9780  -3.6046
    -3.6038  -3.1958  -3.1592  -3.1450  -3.1381  -3.0427  -3.0389  -2.9905
    -2.9847  -2.9742  -2.8586  -2.8397  -2.6018  -2.5995  -2.5730  -2.5723
    -2.5297  -2.5295  -2.3504  -2.3448  -2.3039  -2.2926  -2.2577  -2.2443
    -1.9908  -1.6715  -1.5018  -1.4047  -0.6129  -0.4913  -0.0064  -0.0017
     0.0722   0.4562   0.5061   0.6830   0.6862   0.8194   0.8197   1.0065
     1.1255   1.1754   1.1769   1.3184   1.3228   1.3336   1.3421   1.3459

          k = 0.1167 0.2021 0.0000 ( 48596 PWs)   bands (ev):

   -15.5312 -14.8598 -14.8558 -14.5067 -14.5064 -14.1682 -14.1641 -13.3009
   -13.0214 -13.0188 -12.6874 -12.6872 -12.5376 -12.5342 -12.5232 -12.3293
   -12.1069 -11.3616 -11.3538 -10.9783 -10.9753 -10.6400 -10.6323  -9.7002
    -9.6105  -9.5772  -9.4156  -9.4155  -8.8105  -8.7526  -8.7251  -8.7205
    -8.6973  -8.2582  -8.2561  -7.8219  -7.7027  -7.6979  -7.0799  -7.0764
    -6.9767  -6.9750  -6.8795  -6.4462  -6.4443  -6.3200  -6.3158  -6.1835
    -6.1834  -5.9103  -5.9069  -5.7843  -5.5019  -5.3660  -5.3649  -4.7737
    -4.7701  -4.7162  -4.5431  -4.5264  -4.5224  -4.5185  -4.5185  -4.4022
    -4.4019  -4.0517  -4.0501  -4.0448  -4.0413  -3.9744  -3.9741  -3.6260
    -3.6251  -3.1164  -3.1015  -3.0757  -3.0689  -2.9965  -2.9929  -2.9676
    -2.9617  -2.9565  -2.8253  -2.8067  -2.6173  -2.6150  -2.5865  -2.5856
    -2.4993  -2.4985  -2.3920  -2.3871  -2.3041  -2.2926  -2.2791  -2.1886
    -2.0545  -1.6394  -1.4343  -1.3582  -0.6506  -0.5579  -0.0541   0.0275
     0.0321   0.4317   0.4773   0.6173   0.6205   0.8176   0.8179   0.9837
     1.1126   1.1306   1.1317   1.2356   1.2648   1.3118   1.3160   1.3801

          k = 0.1000 0.1732 0.0000 ( 48574 PWs)   bands (ev):

   -15.5425 -14.8200 -14.8159 -14.5175 -14.5172 -14.2266 -14.2224 -13.2261
   -12.9899 -12.9873 -12.6540 -12.6538 -12.5714 -12.5683 -12.5316 -12.3869
   -12.1197 -11.3181 -11.3104 -10.9907 -10.9877 -10.6968 -10.6890  -9.6264
    -9.5868  -9.5593  -9.4668  -9.4667  -8.8587  -8.7796  -8.7121  -8.6617
    -8.6600  -8.2615  -8.2595  -7.9091  -7.6131  -7.6083  -7.0666  -7.0632
    -6.8624  -6.8607  -6.8107  -6.4564  -6.4544  -6.4204  -6.4162  -6.1785
    -6.1784  -5.9921  -5.9888  -5.8685  -5.5145  -5.4757  -5.4746  -4.7318
    -4.7283  -4.6563  -4.5731  -4.5623  -4.5090  -4.5089  -4.5083  -4.4134
    -4.4132  -4.1063  -4.1026  -4.0113  -4.0096  -3.9294  -3.9291  -3.6457
    -3.6447  -3.0475  -3.0363  -3.0095  -3.0029  -2.9520  -2.9486  -2.9421
    -2.9403  -2.9359  -2.7901  -2.7717  -2.6320  -2.6297  -2.6013  -2.6001
    -2.4934  -2.4901  -2.4133  -2.4107  -2.3311  -2.3174  -2.3123  -2.1189
    -2.0704  -1.6115  -1.3673  -1.3102  -0.6912  -0.6235  -0.1810   0.0600
     0.0643   0.4011   0.4417   0.5547   0.5579   0.8216   0.8222   0.9562
     1.0891   1.0901   1.1022   1.1683   1.2160   1.2828   1.2870   1.4413

          k = 0.0833 0.1443 0.0000 ( 48548 PWs)   bands (ev):

   -15.5522 -14.7787 -14.7747 -14.5265 -14.5263 -14.2837 -14.2796 -13.1514
   -12.9578 -12.9551 -12.6247 -12.6246 -12.6062 -12.6029 -12.5383 -12.4472
   -12.1306 -11.2732 -11.2655 -11.0010 -10.9980 -10.7534 -10.7456  -9.5937
    -9.5533  -9.5103  -9.5101  -9.5061  -8.9102  -8.8557  -8.6652  -8.6044
    -8.6026  -8.2689  -8.2669  -7.9932  -7.5208  -7.5161  -7.0557  -7.0522
    -6.7477  -6.7463  -6.7390  -6.5218  -6.5176  -6.4594  -6.4573  -6.1735
    -6.1735  -6.0701  -6.0669  -5.9525  -5.5881  -5.5868  -5.5246  -4.6887
    -4.6851  -4.6015  -4.5989  -4.5926  -4.4999  -4.4998  -4.4973  -4.4233
    -4.4230  -4.1663  -4.1627  -3.9714  -3.9697  -3.8912  -3.8908  -3.6703
    -3.6692  -3.0034  -2.9562  -2.9477  -2.9415  -2.9281  -2.9136  -2.9098
    -2.9077  -2.9054  -2.7551  -2.7370  -2.6462  -2.6437  -2.6176  -2.6162
    -2.5226  -2.5174  -2.4025  -2.4018  -2.3686  -2.3541  -2.3197  -2.1858
    -1.9513  -1.5878  -1.3012  -1.2607  -0.7347  -0.6879  -0.3070   0.0914
     0.0955   0.3663   0.4018   0.4956   0.4987   0.8299   0.8308   0.9281
     1.0553   1.0558   1.0917   1.1167   1.1843   1.2534   1.2576   1.5068

          k = 0.0667 0.1155 0.0000 ( 48555 PWs)   bands (ev):

   -15.5600 -14.7360 -14.7319 -14.5340 -14.5337 -14.3397 -14.3355 -13.0770
   -12.9247 -12.9220 -12.6417 -12.6390 -12.5999 -12.5994 -12.5440 -12.5105
   -12.1394 -11.2269 -11.2192 -11.0096 -11.0066 -10.8096 -10.8018  -9.6003
    -9.5460  -9.5458  -9.4814  -9.4505  -8.9647  -8.9300  -8.6150  -8.5494
    -8.5476  -8.2805  -8.2785  -8.0758  -7.4265  -7.4217  -7.0469  -7.0435
    -6.6673  -6.6322  -6.6305  -6.6239  -6.6195  -6.4552  -6.4530  -6.1703
    -6.1703  -6.1428  -6.1397  -6.0361  -5.7024  -5.7011  -5.5328  -4.6435
    -4.6400  -4.6206  -4.6174  -4.5581  -4.4925  -4.4925  -4.4889  -4.4312
    -4.4310  -4.2255  -4.2218  -3.9352  -3.9336  -3.8588  -3.8585  -3.6942
    -3.6930  -2.9670  -2.9157  -2.8916  -2.8864  -2.8827  -2.8787  -2.8738
    -2.8686  -2.8657  -2.7195  -2.7018  -2.6601  -2.6576  -2.6355  -2.6339
    -2.5645  -2.5588  -2.4073  -2.3928  -2.3819  -2.3812  -2.3260  -2.2564
    -1.8344  -1.5683  -1.2363  -1.2098  -0.7809  -0.7512  -0.4293   0.1223
     0.1261   0.3305   0.3615   0.4403   0.4434   0.8402   0.8412   0.9029
     1.0304   1.0307   1.0769   1.0852   1.1644   1.2237   1.2276   1.5757

          k = 0.0500 0.0866 0.0000 ( 48567 PWs)   bands (ev):

   -15.5661 -14.6915 -14.6875 -14.5398 -14.5396 -14.3942 -14.3900 -13.0030
   -12.8909 -12.8882 -12.6777 -12.6748 -12.5815 -12.5798 -12.5750 -12.5483
   -12.1463 -11.1790 -11.1714 -11.0164 -11.0133 -10.8653 -10.8573  -9.6054
    -9.5749  -9.5748  -9.4108  -9.3928  -9.0217  -9.0023  -8.5603  -8.4986
    -8.4967  -8.2960  -8.2940  -8.1553  -7.3301  -7.3254  -7.0403  -7.0368
    -6.7262  -6.7218  -6.5931  -6.5153  -6.5136  -6.4443  -6.4420  -6.2089
    -6.2059  -6.1676  -6.1676  -6.1185  -5.8171  -5.8157  -5.5391  -4.6378
    -4.6364  -4.5967  -4.5932  -4.5254  -4.4878  -4.4877  -4.4827  -4.4371
    -4.4369  -4.2830  -4.2793  -3.9006  -3.8990  -3.8338  -3.8335  -3.7190
    -3.7178  -2.9360  -2.9077  -2.8497  -2.8451  -2.8413  -2.8357  -2.8300
    -2.8278  -2.7966  -2.6844  -2.6768  -2.6708  -2.6650  -2.6543  -2.6523
    -2.6086  -2.6026  -2.4475  -2.4325  -2.3635  -2.3630  -2.3313  -2.3286
    -1.7241  -1.5531  -1.1727  -1.1573  -0.8299  -0.8132  -0.5434   0.1534
     0.1570   0.2973   0.3248   0.3890   0.3922   0.8493   0.8504   0.8830
     1.0166   1.0166   1.0512   1.0776   1.1521   1.1944   1.1980   1.6482

          k = 0.0333 0.0577 0.0000 ( 48513 PWs)   bands (ev):

   -15.5704 -14.6455 -14.6415 -14.5440 -14.5437 -14.4473 -14.4432 -12.9292
   -12.8563 -12.8536 -12.7136 -12.7108 -12.6439 -12.5657 -12.5654 -12.5514
   -12.1510 -11.1298 -11.1222 -11.0210 -11.0180 -10.9201 -10.9120  -9.6091
    -9.5952  -9.5950  -9.3414  -9.3328  -9.0813  -9.0724  -8.5012  -8.4515
    -8.4496  -8.3153  -8.3134  -8.2295  -7.2322  -7.2275  -7.0355  -7.0320
    -6.8287  -6.8242  -6.5169  -6.4243  -6.4219  -6.3992  -6.3976  -6.2672
    -6.2644  -6.1993  -6.1652  -6.1652  -5.9317  -5.9303  -5.5436  -4.6502
    -4.6498  -4.5484  -4.5448  -4.5006  -4.4833  -4.4833  -4.4784  -4.4415
    -4.4412  -4.3391  -4.3354  -3.8667  -3.8652  -3.8159  -3.8156  -3.7456
    -3.7443  -2.9144  -2.9017  -2.8141  -2.8090  -2.7990  -2.7964  -2.7924
    -2.7917  -2.7174  -2.6921  -2.6894  -2.6785  -2.6765  -2.6524  -2.6463
    -2.6423  -2.6253  -2.4862  -2.4709  -2.4037  -2.3492  -2.3492  -2.3349
    -1.6282  -1.5423  -1.1107  -1.1034  -0.8815  -0.8739  -0.6418   0.1855
     0.1888   0.2707   0.2957   0.3419   0.3451   0.8551   0.8560   0.8690
     1.0136   1.0139   1.0339   1.0728   1.1448   1.1675   1.1706   1.7238

          k = 0.0167 0.0289 0.0000 ( 48517 PWs)   bands (ev):

   -15.5732 -14.5981 -14.5942 -14.5465 -14.5462 -14.4991 -14.4948 -12.8562
   -12.8211 -12.8184 -12.7497 -12.7469 -12.7133 -12.5571 -12.5568 -12.5535
   -12.1539 -11.0792 -11.0719 -11.0239 -11.0208 -10.9740 -10.9657  -9.6118
    -9.6080  -9.6078  -9.2743  -9.2707  -9.1435  -9.1403  -8.4385  -8.4094
    -8.4076  -8.3413  -8.3394  -8.3014  -7.1328  -7.1282  -7.0326  -7.0292
    -6.9307  -6.9261  -6.4397  -6.3971  -6.3946  -6.3181  -6.3154  -6.2824
    -6.2809  -6.2797  -6.1640  -6.1640  -6.0482  -6.0467  -5.5463  -4.6578
    -4.6578  -4.4982  -4.4948  -4.4848  -4.4813  -4.4813  -4.4759  -4.4438
    -4.4435  -4.3937  -4.3899  -3.8330  -3.8315  -3.8056  -3.8053  -3.7718
    -3.7705  -2.9041  -2.9028  -2.7765  -2.7717  -2.7641  -2.7626  -2.7596
    -2.7571  -2.7114  -2.7087  -2.7040  -2.7017  -2.6951  -2.6886  -2.6363
    -2.6051  -2.5877  -2.5251  -2.5098  -2.4790  -2.3423  -2.3422  -2.3392
    -1.5593  -1.5357  -1.0508  -1.0477  -0.9359  -0.9329  -0.7123   0.2189
     0.2220   0.2534   0.2769   0.2991   0.3024   0.8573   0.8579   0.8607
     1.0177   1.0182   1.0242   1.0700   1.1405   1.1468   1.1495   1.8023

          k = 0.0000 0.0000 0.0000 ( 48515 PWs)   bands (ev):

   -15.5740 -14.5502 -14.5502 -14.5494 -14.5464 -14.5464 -14.5409 -12.7888
   -12.7848 -12.7841 -12.7841 -12.7814 -12.7814 -12.5545 -12.5541 -12.5540
   -12.1549 -11.0288 -11.0282 -11.0282 -11.0214 -11.0214 -11.0114  -9.6127
    -9.6127  -9.6125  -9.2152  -9.2097  -9.2024  -9.2024  -8.3736  -8.3735
    -8.3715  -8.3711  -8.3711  -8.3691  -7.0342  -7.0327  -7.0326  -7.0283
    -7.0282  -7.0231  -6.3627  -6.3627  -6.3598  -6.3591  -6.3584  -6.3584
    -6.1658  -6.1642  -6.1641  -6.1627  -6.1626  -6.1626  -5.5474  -4.6604
    -4.6604  -4.4811  -4.4811  -4.4811  -4.4754  -4.4474  -4.4474  -4.4466
    -4.4440  -4.4440  -4.4391  -3.8029  -3.8007  -3.8007  -3.8003  -3.7990
    -3.7989  -2.8993  -2.8992  -2.7380  -2.7380  -2.7371  -2.7358  -2.7341
[...]
    -9.5615  -9.5447  -9.5418  -9.4731  -8.8706  -8.8681  -8.6678  -8.6664
    -8.4768  -8.4766  -8.0631  -8.0623  -7.6045  -7.3432  -7.3418  -6.8622
    -6.7453  -6.7442  -6.6685  -6.6679  -6.5180  -6.5176  -6.4061  -6.2280
    -6.2279  -5.9620  -5.9620  -5.8272  -5.8264  -5.5232  -5.4691  -4.7383
    -4.5908  -4.5908  -4.5800  -4.5783  -4.5768  -4.5767  -4.4992  -4.4647
    -4.2666  -4.2649  -4.1118  -3.9736  -3.9643  -3.9635  -3.7802  -3.7789
    -3.6178  -3.0131  -2.9778  -2.9767  -2.9424  -2.9325  -2.9133  -2.9108
    -2.8891  -2.8865  -2.8672  -2.7037  -2.7022  -2.5534  -2.5523  -2.5522
    -2.5445  -2.5437  -2.5177  -2.4269  -2.3494  -2.3493  -2.2215  -2.2197
    -1.9754  -1.5907  -1.2945  -1.2920  -0.7008  -0.6986  -0.2833   0.0310
     0.2277   0.2286   0.4881   0.4990   0.5007   0.7696   0.9219   0.9221
     1.0657   1.0659   1.0772   1.0943   1.2243   1.2260   1.2777   1.5264

          k = 0.0000 0.2021 0.0000 ( 48561 PWs)   bands (ev):

   -15.5418 -14.8683 -14.6922 -14.6900 -14.3458 -14.3437 -14.1759 -13.1658
   -13.1637 -12.7695 -12.7692 -12.6954 -12.5738 -12.5736 -12.4322 -12.4300
   -12.1190 -11.3695 -11.1774 -11.1741 -10.8118 -10.8088 -10.6479  -9.6000
    -9.5970  -9.5436  -9.5435  -9.4247  -8.8148  -8.8123  -8.7126  -8.7112
    -8.5115  -8.5114  -8.0114  -8.0107  -7.6922  -7.3964  -7.3950  -6.9755
    -6.7089  -6.7082  -6.7026  -6.7015  -6.5769  -6.5766  -6.3003  -6.1830
    -6.1829  -5.8883  -5.8882  -5.7739  -5.7730  -5.5137  -5.3559  -4.7833
    -4.6092  -4.6092  -4.5974  -4.5956  -4.5658  -4.5657  -4.5090  -4.4587
    -4.2328  -4.2310  -4.0527  -4.0091  -4.0079  -4.0002  -3.7877  -3.7864
    -3.5869  -3.0522  -3.0371  -3.0359  -2.9739  -2.9719  -2.9670  -2.9407
    -2.9125  -2.9100  -2.8856  -2.7144  -2.7129  -2.5442  -2.5439  -2.5195
    -2.5190  -2.5178  -2.5144  -2.4245  -2.3526  -2.3525  -2.1690  -2.1671
    -2.0791  -1.6106  -1.3450  -1.3425  -0.6537  -0.6515  -0.1750  -0.0060
     0.2260   0.2270   0.5256   0.5568   0.5584   0.7405   0.9520   0.9521
     1.0882   1.0883   1.1028   1.1152   1.2525   1.2541   1.3058   1.4726

          k = 0.0000 0.2309 0.0000 ( 48579 PWs)   bands (ev):

   -15.5320 -14.9095 -14.7079 -14.7058 -14.3123 -14.3103 -14.1193 -13.2200
   -13.2178 -12.7652 -12.7648 -12.7353 -12.5794 -12.5792 -12.3876 -12.3854
   -12.1079 -11.4150 -11.1941 -11.1908 -10.7767 -10.7737 -10.5948  -9.6550
    -9.6520  -9.5225  -9.5224  -9.3706  -8.7641  -8.7619  -8.7511  -8.7493
    -8.5493  -8.5492  -7.9593  -7.9587  -7.7768  -7.4499  -7.4484  -7.0899
    -6.7466  -6.7459  -6.6617  -6.6607  -6.6359  -6.6356  -6.1947  -6.1339
    -6.1338  -5.8131  -5.8130  -5.7238  -5.7229  -5.5031  -5.2414  -4.8258
    -4.6460  -4.6460  -4.6140  -4.6123  -4.5372  -4.5371  -4.5212  -4.4525
    -4.1979  -4.1961  -4.0563  -4.0553  -4.0261  -3.9926  -3.7981  -3.7967
    -3.5542  -3.1000  -3.0994  -3.0989  -3.0299  -3.0283  -2.9977  -2.9525
    -2.9352  -2.9328  -2.9027  -2.7274  -2.7259  -2.5471  -2.5394  -2.5392
    -2.4859  -2.4850  -2.4834  -2.3987  -2.3558  -2.3555  -2.1824  -2.1193
    -2.1173  -1.6330  -1.3954  -1.3929  -0.6071  -0.6049  -0.0668  -0.0424
     0.2210   0.2222   0.5622   0.6158   0.6174   0.7114   0.9888   0.9889
     1.1109   1.1173   1.1193   1.1556   1.2854   1.2870   1.3351   1.4206

          k = 0.0000 0.2598 0.0000 ( 48583 PWs)   bands (ev):

   -15.5208 -14.9496 -14.7225 -14.7204 -14.2777 -14.2756 -14.0618 -13.2737
   -13.2715 -12.7787 -12.7601 -12.7598 -12.5857 -12.5855 -12.3452 -12.3430
   -12.0953 -11.4591 -11.2095 -11.2062 -10.7405 -10.7375 -10.5431  -9.7095
    -9.7065  -9.4988  -9.4987  -9.3093  -8.7992  -8.7977  -8.7024  -8.7001
    -8.5901  -8.5900  -7.9063  -7.9057  -7.8583  -7.5034  -7.5019  -7.2031
    -6.7816  -6.7809  -6.6940  -6.6937  -6.6229  -6.6218  -6.0894  -6.0807
    -6.0807  -5.7360  -5.7358  -5.6754  -5.6744  -5.4914  -5.1295  -4.8664
    -4.6881  -4.6880  -4.6295  -4.6277  -4.5362  -4.5050  -4.5048  -4.4436
    -4.1612  -4.1594  -4.1070  -4.1060  -4.0506  -3.9324  -3.8121  -3.8106
    -3.5227  -3.1659  -3.1648  -3.1488  -3.0875  -3.0857  -3.0224  -2.9660
    -2.9572  -2.9549  -2.9185  -2.7419  -2.7403  -2.5871  -2.5357  -2.5354
    -2.4544  -2.4524  -2.4505  -2.3658  -2.3568  -2.3561  -2.2837  -2.0725
    -2.0706  -1.6578  -1.4457  -1.4432  -0.5610  -0.5588  -0.0782   0.0398
     0.2121   0.2134   0.5977   0.6739   0.6755   0.6833   1.0306   1.0308
     1.1227   1.1544   1.1556   1.1958   1.3245   1.3260   1.3679   1.3712

          k = 0.0000 0.2887 0.0000 ( 48601 PWs)   bands (ev):

   -15.5084 -14.9887 -14.7357 -14.7336 -14.2419 -14.2399 -14.0038 -13.3270
   -13.3248 -12.8256 -12.7548 -12.7545 -12.5926 -12.5924 -12.3052 -12.3030
   -12.0812 -11.5022 -11.2235 -11.2203 -10.7031 -10.7001 -10.4925  -9.7637
    -9.7607  -9.4730  -9.4728  -9.2442  -8.8389  -8.8373  -8.6491  -8.6470
    -8.6313  -8.6310  -7.9358  -7.8537  -7.8532  -7.5571  -7.5556  -7.3166
    -6.8140  -6.8132  -6.7523  -6.7521  -6.5864  -6.5853  -6.0244  -6.0243
    -5.9849  -5.6577  -5.6575  -5.6282  -5.6272  -5.4789  -5.0186  -4.9067
    -4.7336  -4.7336  -4.6433  -4.6415  -4.5543  -4.4693  -4.4691  -4.4352
    -4.1613  -4.1604  -4.1227  -4.1209  -4.0768  -3.8711  -3.8254  -3.8239
    -3.4925  -3.2341  -3.2331  -3.2042  -3.1443  -3.1424  -3.0445  -2.9818
    -2.9784  -2.9763  -2.9330  -2.7570  -2.7554  -2.6345  -2.5310  -2.5307
    -2.4278  -2.4264  -2.4150  -2.3822  -2.3522  -2.3514  -2.3309  -2.0277
    -2.0258  -1.6848  -1.4959  -1.4933  -0.5154  -0.5133  -0.1129   0.1434
     0.1989   0.2003   0.6312   0.6573   0.7290   0.7307   1.0745   1.0747
     1.1344   1.2009   1.2022   1.2310   1.3253   1.3287   1.3715   1.3730

          k = 0.0000 0.3175 0.0000 ( 48613 PWs)   bands (ev):

   -15.4945 -15.0265 -14.7477 -14.7456 -14.2052 -14.2031 -13.9449 -13.3800
   -13.3779 -12.8751 -12.7487 -12.7484 -12.5999 -12.5997 -12.2679 -12.2657
   -12.0657 -11.5439 -11.2362 -11.2329 -10.6649 -10.6619 -10.4437  -9.8175
    -9.8145  -9.4451  -9.4450  -9.1735  -8.8760  -8.8745  -8.6786  -8.6785
    -8.5908  -8.5885  -8.0090  -7.8013  -7.8008  -7.6110  -7.6094  -7.4271
    -6.8426  -6.8418  -6.8104  -6.8102  -6.5523  -6.5513  -5.9636  -5.9635
    -5.8814  -5.5841  -5.5832  -5.5788  -5.5786  -5.4648  -4.9456  -4.9072
    -4.7827  -4.7827  -4.6561  -4.6544  -4.5760  -4.4304  -4.4298  -4.4265
    -4.2192  -4.2182  -4.1011  -4.0837  -4.0819  -3.8413  -3.8397  -3.8085
    -3.4633  -3.3042  -3.3032  -3.2624  -3.2018  -3.1999  -3.0636  -2.9992
    -2.9977  -2.9967  -2.9461  -2.7721  -2.7705  -2.6848  -2.5251  -2.5248
    -2.4768  -2.4122  -2.4114  -2.3788  -2.3366  -2.3352  -2.2974  -1.9862
    -1.9842  -1.7138  -1.5457  -1.5432  -0.4704  -0.4684  -0.1461   0.1816
     0.1831   0.2430   0.6308   0.6656   0.7795   0.7812   1.1167   1.1170
     1.1468   1.2506   1.2532   1.2582   1.2916   1.2936   1.4275   1.4289

          k = 0.0000 0.3464 0.0000 ( 48605 PWs)   bands (ev):

   -15.4793 -15.0632 -14.7584 -14.7563 -14.1673 -14.1652 -13.8857 -13.4325
   -13.4304 -12.9273 -12.7422 -12.7419 -12.6076 -12.6074 -12.2333 -12.2311
   -12.0488 -11.5843 -11.2476 -11.2444 -10.6254 -10.6224 -10.3971  -9.8707
    -9.8676  -9.4145  -9.4144  -9.0989  -8.9102  -8.9086  -8.7247  -8.7245
    -8.5357  -8.5335  -8.0773  -7.7486  -7.7482  -7.6649  -7.6633  -7.5401
    -6.8693  -6.8691  -6.8668  -6.8659  -6.5211  -6.5201  -5.9008  -5.9008
    -5.7794  -5.5427  -5.5416  -5.4990  -5.4986  -5.4482  -4.9822  -4.8366
    -4.8366  -4.7979  -4.6670  -4.6653  -4.6019  -4.4151  -4.3875  -4.3873
    -4.2789  -4.2780  -4.1254  -4.0438  -4.0420  -3.8555  -3.8539  -3.7462
    -3.4327  -3.3755  -3.3745  -3.3273  -3.2581  -3.2562  -3.0795  -3.0183
    -3.0161  -3.0150  -2.9578  -2.7867  -2.7850  -2.7385  -2.5666  -2.5189
    -2.5187  -2.4080  -2.4077  -2.3418  -2.3087  -2.3068  -2.2654  -1.9468
    -1.9448  -1.7446  -1.5952  -1.5927  -0.4260  -0.4240  -0.1776   0.1605
     0.1621   0.3371   0.6086   0.6958   0.8244   0.8261   1.1551   1.1554
     1.1599   1.2345   1.2383   1.2765   1.3400   1.3404   1.4933   1.4946

          k = 0.0000 0.3753 0.0000 ( 48609 PWs)   bands (ev):

   -15.4628 -15.0986 -14.7678 -14.7656 -14.1286 -14.1265 -13.8256 -13.4844
   -13.4823 -12.9816 -12.7355 -12.7351 -12.6158 -12.6156 -12.2020 -12.1997
   -12.0304 -11.6235 -11.2576 -11.2544 -10.5848 -10.5818 -10.3535  -9.9234
    -9.9204  -9.3819  -9.3818  -9.0204  -8.9414  -8.9397  -8.7718  -8.7717
    -8.4806  -8.4784  -8.1403  -7.7188  -7.7172  -7.6954  -7.6950  -7.6505
    -6.9267  -6.9265  -6.8900  -6.8891  -6.4929  -6.4919  -5.8359  -5.8359
    -5.6799  -5.5042  -5.5030  -5.4317  -5.4178  -5.4174  -5.0170  -4.8923
    -4.8923  -4.6886  -4.6765  -4.6748  -4.6323  -4.4037  -4.3449  -4.3440
    -4.3417  -4.3415  -4.1487  -4.0029  -4.0011  -3.8693  -3.8677  -3.6828
    -3.4474  -3.4465  -3.4035  -3.3957  -3.3131  -3.3112  -3.0918  -3.0364
    -3.0342  -3.0339  -2.9682  -2.8002  -2.7985  -2.7947  -2.6507  -2.5129
    -2.5126  -2.4106  -2.4104  -2.3044  -2.2741  -2.2721  -2.2355  -1.9116
    -1.9096  -1.7770  -1.6443  -1.6417  -0.3822  -0.3803  -0.2068   0.1361
     0.1378   0.4246   0.5886   0.7236   0.8633   0.8650   1.1729   1.1867
     1.1873   1.2032   1.2065   1.2874   1.4213   1.4216   1.5662   1.5676

          k = 0.0000 0.4041 0.0000 ( 48599 PWs)   bands (ev):

   -15.4452 -15.1330 -14.7760 -14.7738 -14.0885 -14.0864 -13.7650 -13.5356
   -13.5334 -13.0377 -12.7282 -12.7279 -12.6242 -12.6240 -12.1741 -12.1719
   -12.0106 -11.6614 -11.2663 -11.2631 -10.5433 -10.5403 -10.3137  -9.9755
    -9.9724  -9.3471  -9.3470  -8.9684  -8.9670  -8.9387  -8.8195  -8.8193
    -8.4255  -8.4233  -8.1971  -7.7729  -7.7712  -7.7592  -7.6421  -7.6417
    -6.9831  -6.9830  -6.9093  -6.9084  -6.4677  -6.4667  -5.7696  -5.7696
    -5.5836  -5.4693  -5.4681  -5.4133  -5.3365  -5.3361  -5.0496  -4.9510
    -4.9509  -4.6849  -4.6832  -4.6679  -4.5819  -4.4105  -4.4096  -4.3915
    -4.2928  -4.2925  -4.1734  -3.9608  -3.9590  -3.8849  -3.8832  -3.6189
    -3.5196  -3.5187  -3.4690  -3.3745  -3.3679  -3.3660  -3.1002  -3.0554
    -3.0526  -3.0507  -2.9773  -2.8533  -2.8124  -2.8107  -2.7286  -2.5067
    -2.5064  -2.4151  -2.4150  -2.2664  -2.2361  -2.2342  -2.2083  -1.8790
    -1.8770  -1.8109  -1.6927  -1.6901  -0.3391  -0.3372  -0.2334   0.1088
     0.1106   0.5045   0.5710   0.7484   0.8964   0.8981   1.1659   1.1693
     1.1864   1.2243   1.2248   1.2927   1.5122   1.5124   1.6012   1.6022

          k = 0.0000 0.4330 0.0000 ( 48595 PWs)   bands (ev):

   -15.4262 -15.1660 -14.7829 -14.7808 -14.0475 -14.0454 -13.7041 -13.5861
   -13.5839 -13.0954 -12.7206 -12.7202 -12.6328 -12.6327 -12.1500 -12.1478
   -11.9892 -11.6980 -11.2736 -11.2704 -10.5008 -10.4978 -10.2781 -10.0271
   -10.0240  -9.3106  -9.3105  -8.9923  -8.9907  -8.8673  -8.8672  -8.8535
    -8.3706  -8.3686  -8.2471  -7.8678  -7.8269  -7.8252  -7.5887  -7.5884
    -7.0401  -7.0400  -6.9258  -6.9248  -6.4461  -6.4451  -5.7002  -5.7001
    -5.4920  -5.4394  -5.4382  -5.3945  -5.2555  -5.2550  -5.0775  -5.0124
    -5.0124  -4.7089  -4.6921  -4.6902  -4.4793  -4.4791  -4.4770  -4.3797
    -4.2409  -4.2406  -4.1959  -3.9177  -3.9159  -3.8984  -3.8967  -3.5914
    -3.5906  -3.5547  -3.5453  -3.4219  -3.4200  -3.3449  -3.1042  -3.0766
    -3.0673  -3.0654  -2.9849  -2.9137  -2.8230  -2.8216  -2.7993  -2.4994
    -2.4991  -2.4208  -2.4207  -2.2280  -2.1962  -2.1950  -2.1836  -1.8520
    -1.8500  -1.8459  -1.7398  -1.7372  -0.2966  -0.2951  -0.2568   0.0791
     0.0810   0.5556   0.5764   0.7692   0.9238   0.9256   1.1382   1.1417
     1.1999   1.2544   1.2549   1.2937   1.5667   1.5677   1.6188   1.6203

          k = 0.0000 0.4619 0.0000 ( 48575 PWs)   bands (ev):

   -15.4059 -15.1974 -14.7886 -14.7865 -14.0053 -14.0032 -13.6429 -13.6359
   -13.6337 -13.1542 -12.7126 -12.7122 -12.6417 -12.6416 -12.1300 -12.1278
   -11.9664 -11.7333 -11.2797 -11.2765 -10.4572 -10.4542 -10.2474 -10.0778
   -10.0747  -9.2720  -9.2718  -9.0125  -9.0109  -8.9151  -8.9150  -8.7659
    -8.3158  -8.3139  -8.2891  -7.9742  -7.8809  -7.8792  -7.5355  -7.5352
    -7.0963  -7.0963  -6.9394  -6.9384  -6.4283  -6.4273  -5.6298  -5.6298
    -5.4145  -5.4129  -5.4080  -5.3751  -5.1731  -5.1726  -5.0984  -5.0755
    -5.0755  -4.7554  -4.6980  -4.6962  -4.5496  -4.5488  -4.3727  -4.3660
    -4.2191  -4.1862  -4.1858  -3.9103  -3.9085  -3.8734  -3.8716  -3.6621
    -3.6613  -3.6257  -3.4907  -3.4752  -3.4733  -3.3131  -3.1033  -3.1008
    -3.0798  -3.0778  -2.9912  -2.9756  -2.8637  -2.8319  -2.8297  -2.4918
    -2.4914  -2.4274  -2.4273  -2.1894  -2.1658  -2.1549  -2.1513  -1.8820
    -1.8352  -1.8331  -1.7827  -1.7801  -0.2778  -0.2548  -0.2523   0.0474
     0.0492   0.5435   0.6381   0.7854   0.9460   0.9478   1.1147   1.1181
     1.2132   1.2839   1.2841   1.2917   1.5386   1.5390   1.7228   1.7235

          k = 0.0000 0.4907 0.0000 ( 48569 PWs)   bands (ev):

   -15.3844 -15.2280 -14.7930 -14.7909 -13.9624 -13.9603 -13.6849 -13.6828
   -13.5813 -13.2138 -12.7044 -12.7040 -12.6506 -12.6505 -12.1142 -12.1120
   -11.9422 -11.7672 -11.2844 -11.2812 -10.4128 -10.4098 -10.2228 -10.1279
   -10.1246  -9.2314  -9.2313  -9.0286  -9.0269  -8.9631  -8.9630  -8.6741
    -8.3234  -8.2611  -8.2589  -8.0795  -7.9351  -7.9333  -7.4813  -7.4810
    -7.1524  -7.1524  -6.9499  -6.9490  -6.4141  -6.4131  -5.5603  -5.5602
    -5.3950  -5.3936  -5.3549  -5.3392  -5.1409  -5.1409  -5.1078  -5.0912
    -5.0906  -4.8074  -4.7024  -4.7006  -4.6224  -4.6216  -4.3481  -4.2712
    -4.2395  -4.1288  -4.1283  -3.9207  -3.9189  -3.8309  -3.8292  -3.7297
    -3.7289  -3.7109  -3.5275  -3.5256  -3.4256  -3.2844  -3.1245  -3.0976
    -3.0898  -3.0875  -3.0371  -2.9961  -2.9195  -2.8388  -2.8368  -2.4846
    -2.4842  -2.4353  -2.4351  -2.1505  -2.1490  -2.1126  -2.1097  -1.9190
    -1.8488  -1.8464  -1.7989  -1.7966  -0.2934  -0.2137  -0.2117   0.0138
     0.0158   0.5339   0.6900   0.7960   0.9631   0.9648   1.0960   1.0994
     1.2260   1.2865   1.3128   1.3135   1.5066   1.5069   1.8350   1.8355

          k = 0.0000 0.5196 0.0000 ( 48597 PWs)   bands (ev):

   -15.3615 -15.2571 -14.7963 -14.7942 -13.9184 -13.9163 -13.7333 -13.7312
   -13.5196 -13.2743 -12.6960 -12.6955 -12.6597 -12.6597 -12.1028 -12.1005
   -11.9168 -11.7998 -11.2877 -11.2845 -10.3675 -10.3645 -10.2048 -10.1774
   -10.1737  -9.1902  -9.1900  -9.0403  -9.0387  -9.0102  -9.0101  -8.5803
    -8.3482  -8.2066  -8.2046  -8.1829  -7.9892  -7.9874  -7.4270  -7.4268
    -7.2083  -7.2083  -6.9574  -6.9564  -6.4038  -6.4029  -5.4902  -5.4902
    -5.3800  -5.3786  -5.3344  -5.2973  -5.2101  -5.2101  -5.0925  -5.0108
    -5.0102  -4.8647  -4.7057  -4.7039  -4.6973  -4.6966  -4.3330  -4.2604
    -4.1720  -4.0689  -4.0684  -3.9281  -3.9263  -3.8197  -3.8188  -3.7974
    -3.7638  -3.7622  -3.5795  -3.5777  -3.3607  -3.2563  -3.1488  -3.1017
    -3.0972  -3.0959  -3.0834  -2.9995  -2.9676  -2.8438  -2.8418  -2.4770
    -2.4765  -2.4439  -2.4436  -2.1370  -2.1115  -2.0694  -2.0666  -1.9567
    -1.8903  -1.8878  -1.7911  -1.7889  -0.3051  -0.1734  -0.1716  -0.0213
    -0.0192   0.5270   0.7315   0.7999   0.9752   0.9770   1.0825   1.0859
     1.2384   1.2797   1.3415   1.3422   1.4749   1.4753   1.9523   1.9528

          k = 0.0000 0.5485 0.0000 ( 48596 PWs)   bands (ev):

   -15.3375 -15.2851 -14.7981 -14.7960 -13.8735 -13.8714 -13.7808 -13.7787
   -13.4582 -13.3352 -12.6876 -12.6867 -12.6687 -12.6684 -12.0958 -12.0936
   -11.8898 -11.8309 -11.2898 -11.2866 -10.3212 -10.3183 -10.2260 -10.2236
   -10.1923  -9.1470  -9.1469  -9.0566  -9.0565  -9.0471  -9.0454  -8.4838
    -8.3634  -8.2840  -8.1522  -8.1502  -8.0434  -8.0415  -7.3727  -7.3726
    -7.2636  -7.2635  -6.9622  -6.9612  -6.3978  -6.3968  -5.4189  -5.4188
    -5.3714  -5.3699  -5.3147  -5.2878  -5.2789  -5.2789  -5.0487  -4.9304
    -4.9297  -4.9259  -4.7743  -4.7736  -4.7074  -4.7056  -4.3164  -4.2800
    -4.0732  -4.0068  -4.0063  -3.9316  -3.9299  -3.8871  -3.8779  -3.8772
    -3.7258  -3.7239  -3.6298  -3.6279  -3.2970  -3.2289  -3.1776  -3.1659
    -3.1017  -3.1002  -3.0658  -3.0079  -3.0016  -2.8468  -2.8448  -2.4688
    -2.4679  -2.4517  -2.4510  -2.1298  -2.0725  -2.0253  -2.0226  -1.9948
    -1.9353  -1.9328  -1.7852  -1.7830  -0.3123  -0.1340  -0.1326  -0.0576
    -0.0552   0.5228   0.7628   0.7964   0.9824   0.9842   1.0743   1.0777
     1.2498   1.2714   1.3690   1.3701   1.4453   1.4460   2.0730   2.0740

          k = 0.0000 0.5774 0.0000 ( 48666 PWs)   bands (ev):

   -15.3140 -15.3099 -14.7989 -14.7968 -13.8285 -13.8269 -13.8261 -13.8250
   -13.3980 -13.3955 -12.6817 -12.6791 -12.6766 -12.6745 -12.0937 -12.0914
   -11.8650 -11.8573 -11.2906 -11.2874 -10.2771 -10.2739 -10.2711 -10.2687
   -10.1889  -9.1049  -9.1044  -9.1012  -9.1009  -9.0506  -9.0489  -8.3883
    -8.3849  -8.3653  -8.1010  -8.0976  -8.0946  -8.0941  -7.3190  -7.3189
    -7.3180  -7.3178  -6.9647  -6.9637  -6.3958  -6.3948  -5.3693  -5.3678
    -5.3517  -5.3499  -5.3486  -5.3468  -5.2987  -5.2964  -4.9900  -4.9883
    -4.8532  -4.8525  -4.8514  -4.8506  -4.7084  -4.7067  -4.3009  -4.2970
    -3.9814  -3.9779  -3.9459  -3.9452  -3.9404  -3.9386  -3.9357  -3.9336
    -3.6796  -3.6784  -3.6777  -3.6766  -3.2420  -3.2207  -3.2054  -3.2020
    -3.1032  -3.1017  -3.0416  -3.0396  -3.0023  -2.8479  -2.8458  -2.4643
    -2.4620  -2.4584  -2.4564  -2.1274  -2.0362  -2.0309  -1.9838  -1.9798
    -1.9773  -1.9761  -1.7834  -1.7813  -0.3147  -0.1006  -0.0981  -0.0925
    -0.0861   0.5214   0.7822   0.7862   0.9848   0.9866   1.0715   1.0749
     1.2581   1.2641   1.3853   1.3870   1.4274   1.4288   2.1069   2.1089

     Writing output data file Ge+SiC_II__4.5.save/

     init_run     :      2.19s CPU      2.55s WALL (       1 calls)
     electrons    :  31913.75s CPU  32478.54s WALL (       1 calls)

     Called by init_run:
     wfcinit      :      0.00s CPU      0.00s WALL (       1 calls)
     wfcinit:atom :     23.22s CPU     42.39s WALL (      61 calls)
     wfcinit:wfcr :  11349.82s CPU  11517.68s WALL (      61 calls)
     potinit      :      0.64s CPU      0.96s WALL (       1 calls)
     hinit0       :      1.37s CPU      1.39s WALL (       1 calls)

     Called by electrons:
     c_bands      :  31913.74s CPU  32478.46s WALL (       1 calls)
     v_of_rho     :      0.57s CPU      0.60s WALL (       1 calls)
     v_h          :      0.04s CPU      0.04s WALL (       1 calls)
     v_xc         :      0.53s CPU      0.55s WALL (       1 calls)

     Called by c_bands:
     init_us_2    :     11.67s CPU     12.79s WALL (      61 calls)
     cegterg      :  20306.00s CPU  20668.22s WALL (     156 calls)

     Called by sum_band:

     Called by *egterg:
     h_psi        :  19172.27s CPU  19366.00s WALL (    2701 calls)
     g_psi        :     31.80s CPU     32.04s WALL (    2484 calls)
     cdiaghg      :    498.42s CPU    542.97s WALL (    2545 calls)
     cegterg:over :   3329.17s CPU   3349.61s WALL (    2484 calls)
     cegterg:upda :   2212.94s CPU   2245.04s WALL (    2484 calls)
     cegterg:last :   1101.58s CPU   1236.25s WALL (     278 calls)

     Called by h_psi:
     h_psi:pot    :  19132.73s CPU  19242.06s WALL (    2701 calls)
     h_psi:calbec :   5755.29s CPU   5844.89s WALL (    2701 calls)
     vloc_psi     :   8284.55s CPU   8300.14s WALL (    2701 calls)
     add_vuspsi   :   5092.83s CPU   5095.85s WALL (    2701 calls)

     General routines
     calbec       :   5755.25s CPU   5839.46s WALL (    2701 calls)
     fft          :      0.27s CPU      0.27s WALL (      11 calls)
     fftw         :   7040.30s CPU   7049.08s WALL (  287998 calls)
     davcio       :      0.56s CPU     68.10s WALL (     122 calls)

     Parallel routines

     PWSCF        :     8h52m CPU       52h 9m WALL

       2h

   This run was terminated on:   1:23:49  20Apr2020            

=------------------------------------------------------------------------------=
   JOB DONE.
=------------------------------------------------------------------------------=
