
     Program PWSCF v.6.3 starts on 19Apr2020 at  9:18:37 

     This program is part of the open-source Quantum ESPRESSO suite
     for quantum simulation of materials; please cite
         "P. Giannozzi et al., J. Phys.:Condens. Matter 21 395502 (2009);
         "P. Giannozzi et al., J. Phys.:Condens. Matter 29 465901 (2017);
          URL http://www.quantum-espresso.org", 
     in publications or presentations arising from this work. More details at
     http://www.quantum-espresso.org/quote

     Parallel version (MPI), running on     1 processors

     MPI processes distributed on     1 nodes
     Reading input from /home/nano3/Desktop/RAYID/Ge+SiC/Ge+SiC_II/Ge+SiC_II__4.0.scf.in

     Current dimensions of program PWSCF are:
     Max number of different atomic species (ntypx) = 10
     Max number of k-points (npk) =  40000
     Max angular momentum in pseudopotentials (lmaxx) =  3

     IMPORTANT: XC functional enforced from input :
     Exchange-correlation      = PBE ( 1  4  3  4 0 0)
     Any further DFT definition will be discarded
     Please, verify this is what you really want

               file Ge.pbe-mt_fhi.UPF: wavefunction(s)  4d 4f renormalized
               file C.pbe-mt_fhi.UPF: wavefunction(s)  4f renormalized
               file Si.pbe-mt_fhi.UPF: wavefunction(s)  4f renormalized

     -------------------------------------------------
     Parameters for Dispersion (Grimme-D2) Correction:
     -------------------------------------------------
       atom      VdW radius       C_6     

        Ge         3.264        593.221
        C          2.744         60.710
        Si         3.243        320.200

     Subspace diagonalization in iterative solution of the eigenvalue problem:
     a serial algorithm will be used


     G-vector sticks info
     --------------------
     sticks:   dense  smooth     PW     G-vecs:    dense   smooth      PW
     Sum        4429    4429   1177               388955   388955   53541



     bravais-lattice index     =            4
     lattice parameter (alat)  =      23.1302  a.u.
     unit-cell volume          =   17511.3678 (a.u.)^3
     number of atoms/cell      =           50
     number of atomic types    =            3
     number of electrons       =       200.00
     number of Kohn-Sham states=          120
     kinetic-energy cutoff     =      30.0000  Ry
     charge density cutoff     =     120.0000  Ry
     convergence threshold     =      1.0E-04
     mixing beta               =       0.7000
     number of iterations used =            8  plain     mixing
     Exchange-correlation      = PBE ( 1  4  3  4 0 0)

     celldm(1)=  23.130248  celldm(2)=   0.000000  celldm(3)=   1.633987
     celldm(4)=   0.000000  celldm(5)=   0.000000  celldm(6)=   0.000000

     crystal axes: (cart. coord. in units of alat)
               a(1) = (   1.000000   0.000000   0.000000 )  
               a(2) = (  -0.500000   0.866025   0.000000 )  
               a(3) = (   0.000000   0.000000   1.633987 )  

     reciprocal axes: (cart. coord. in units 2 pi/alat)
               b(1) = (  1.000000  0.577350 -0.000000 )  
               b(2) = (  0.000000  1.154701  0.000000 )  
               b(3) = (  0.000000 -0.000000  0.612000 )  


     PseudoPot. # 1 for Ge read from file:
     /home/nano3/Desktop/RAYID/qe-6.3/bin/pseudo/Ge.pbe-mt_fhi.UPF
     MD5 check sum: b08ff19c3d362044f6e29226b459d86a
     Pseudo is Norm-conserving, Zval =  4.0
     Generated using FHI98PP, converted with fhi2upf.x v.5.0.2
     Using radial grid of  529 points,  3 beta functions with: 
                l(1) =   1
                l(2) =   2
                l(3) =   3

     PseudoPot. # 2 for C  read from file:
     /home/nano3/Desktop/RAYID/qe-6.3/bin/pseudo/C.pbe-mt_fhi.UPF
     MD5 check sum: 058ca341f9d6d5327d9962fd88a91b65
     Pseudo is Norm-conserving, Zval =  4.0
     Generated using FHI98PP, converted with fhi2upf.x v.5.0.2
     Using radial grid of  461 points,  3 beta functions with: 
                l(1) =   0
                l(2) =   1
                l(3) =   3

     PseudoPot. # 3 for Si read from file:
     /home/nano3/Desktop/RAYID/qe-6.3/bin/pseudo/Si.pbe-mt_fhi.UPF
     MD5 check sum: 259057c2adf9952f9ced37ae3d9e311d
     Pseudo is Norm-conserving, Zval =  4.0
     Generated using FHI98PP, converted with fhi2upf.x v.5.0.2
     Using radial grid of  495 points,  3 beta functions with: 
                l(1) =   0
                l(2) =   1
                l(3) =   3

     atomic species   valence    mass     pseudopotential
        Ge             4.00    72.59000     Ge( 1.00)
        C              4.00    12.01070     C ( 1.00)
        Si             4.00    28.08550     Si( 1.00)

      6 Sym. Ops. (no inversion) found


                                    s                        frac. trans.

      isym =  1     identity                                     

 cryst.   s( 1) = (     1          0          0      )
                  (     0          1          0      )
                  (     0          0          1      )

 cart.    s( 1) = (  1.0000000  0.0000000  0.0000000 )
                  (  0.0000000  1.0000000  0.0000000 )
                  (  0.0000000  0.0000000  1.0000000 )


      isym =  2     120 deg rotation - cryst. axis [0,0,1]       

 cryst.   s( 2) = (     0          1          0      )
                  (    -1         -1          0      )
                  (     0          0          1      )

 cart.    s( 2) = ( -0.5000000 -0.8660254  0.0000000 )
                  (  0.8660254 -0.5000000  0.0000000 )
                  (  0.0000000  0.0000000  1.0000000 )


      isym =  3     120 deg rotation - cryst. axis [0,0,-1]      

 cryst.   s( 3) = (    -1         -1          0      )
                  (     1          0          0      )
                  (     0          0          1      )

 cart.    s( 3) = ( -0.5000000  0.8660254  0.0000000 )
                  ( -0.8660254 -0.5000000  0.0000000 )
                  (  0.0000000  0.0000000  1.0000000 )


      isym =  4     inv. 180 deg rotation - cart. axis [1,0,0]   

 cryst.   s( 4) = (    -1          0          0      )
                  (     1          1          0      )
                  (     0          0          1      )

 cart.    s( 4) = ( -1.0000000  0.0000000  0.0000000 )
                  (  0.0000000  1.0000000  0.0000000 )
                  (  0.0000000  0.0000000  1.0000000 )


      isym =  5     inv. 180 deg rotation - cryst. axis [0,1,0]  

 cryst.   s( 5) = (     1          1          0      )
                  (     0         -1          0      )
                  (     0          0          1      )

 cart.    s( 5) = (  0.5000000  0.8660254  0.0000000 )
                  (  0.8660254 -0.5000000  0.0000000 )
                  (  0.0000000  0.0000000  1.0000000 )


      isym =  6     inv. 180 deg rotation - cryst. axis [1,1,0]  

 cryst.   s( 6) = (     0         -1          0      )
                  (    -1          0          0      )
                  (     0          0          1      )

 cart.    s( 6) = (  0.5000000 -0.8660254  0.0000000 )
                  ( -0.8660254 -0.5000000  0.0000000 )
                  (  0.0000000  0.0000000  1.0000000 )


     point group C_3v (3m)  
     there are  3 classes
     the character table:

       E     2C3   3s_v 
A_1    1.00  1.00  1.00
A_2    1.00  1.00 -1.00
E      2.00 -1.00  0.00

     the symmetry operations in each class and the name of the first element:

     E        1
          identity                                               
     2C3      2    3
          120 deg rotation - cryst. axis [0,0,1]                 
     3s_v     4    5    6
          inv. 180 deg rotation - cart. axis [1,0,0]             

   Cartesian axes

     site n.     atom                  positions (alat units)
         1           Ge  tau(   1) = (   0.0000000   0.0000000   0.3267974  )
         2           Ge  tau(   2) = (   0.0000000   0.1924510   0.3816993  )
         3           Ge  tau(   3) = (  -0.1666667   0.2886751   0.3267974  )
         4           Ge  tau(   4) = (  -0.1666667   0.4811261   0.3816993  )
         5           Ge  tau(   5) = (  -0.3333333   0.5773503   0.3267974  )
         6           Ge  tau(   6) = (  -0.3333333   0.7698012   0.3816993  )
         7           Ge  tau(   7) = (   0.3333333   0.0000000   0.3267974  )
         8           Ge  tau(   8) = (   0.3333333   0.1924510   0.3816993  )
         9           Ge  tau(   9) = (   0.1666667   0.2886751   0.3267974  )
        10           Ge  tau(  10) = (   0.1666667   0.4811261   0.3816993  )
        11           Ge  tau(  11) = (   0.0000000   0.5773503   0.3267974  )
        12           Ge  tau(  12) = (   0.0000000   0.7698012   0.3816993  )
        13           Ge  tau(  13) = (   0.6666667   0.0000000   0.3267974  )
        14           Ge  tau(  14) = (   0.6666667   0.1924510   0.3816993  )
        15           Ge  tau(  15) = (   0.5000000   0.2886751   0.3267974  )
        16           Ge  tau(  16) = (   0.5000000   0.4811261   0.3816993  )
        17           Ge  tau(  17) = (   0.3333333   0.5773503   0.3267974  )
        18           Ge  tau(  18) = (   0.3333333   0.7698012   0.3816993  )
        19           C   tau(  19) = (   0.0000000   0.0000000   0.0000000  )
        20           Si  tau(  20) = (   0.0000000   0.1443382   0.0000000  )
        21           C   tau(  21) = (  -0.1250000   0.2165064   0.0000000  )
        22           Si  tau(  22) = (  -0.1250000   0.3608446   0.0000000  )
        23           C   tau(  23) = (  -0.2500000   0.4330127   0.0000000  )
        24           Si  tau(  24) = (  -0.2500000   0.5773509   0.0000000  )
        25           C   tau(  25) = (  -0.3750000   0.6495191   0.0000000  )
        26           Si  tau(  26) = (  -0.3750000   0.7938573   0.0000000  )
        27           C   tau(  27) = (   0.2500000   0.0000000   0.0000000  )
        28           Si  tau(  28) = (   0.2500000   0.1443382   0.0000000  )
        29           C   tau(  29) = (   0.1250000   0.2165064   0.0000000  )
        30           Si  tau(  30) = (   0.1250000   0.3608446   0.0000000  )
        31           C   tau(  31) = (   0.0000000   0.4330127   0.0000000  )
        32           Si  tau(  32) = (   0.0000000   0.5773509   0.0000000  )
        33           C   tau(  33) = (  -0.1250000   0.6495191   0.0000000  )
        34           Si  tau(  34) = (  -0.1250000   0.7938573   0.0000000  )
        35           C   tau(  35) = (   0.5000000   0.0000000   0.0000000  )
        36           Si  tau(  36) = (   0.5000000   0.1443382   0.0000000  )
        37           C   tau(  37) = (   0.3750000   0.2165064   0.0000000  )
        38           Si  tau(  38) = (   0.3750000   0.3608446   0.0000000  )
        39           C   tau(  39) = (   0.2500000   0.4330127   0.0000000  )
        40           Si  tau(  40) = (   0.2500000   0.5773509   0.0000000  )
        41           C   tau(  41) = (   0.1250000   0.6495191   0.0000000  )
        42           Si  tau(  42) = (   0.1250000   0.7938573   0.0000000  )
        43           C   tau(  43) = (   0.7500000   0.0000000   0.0000000  )
        44           Si  tau(  44) = (   0.7500000   0.1443382   0.0000000  )
        45           C   tau(  45) = (   0.6250000   0.2165064   0.0000000  )
        46           Si  tau(  46) = (   0.6250000   0.3608446   0.0000000  )
        47           C   tau(  47) = (   0.5000000   0.4330127   0.0000000  )
        48           Si  tau(  48) = (   0.5000000   0.5773509   0.0000000  )
        49           C   tau(  49) = (   0.3750000   0.6495191   0.0000000  )
        50           Si  tau(  50) = (   0.3750000   0.7938573   0.0000000  )

   Crystallographic axes

     site n.     atom                  positions (cryst. coord.)
         1           Ge  tau(   1) = (  0.0000000  0.0000000  0.2000000  )
         2           Ge  tau(   2) = (  0.1111116  0.2222233  0.2336000  )
         3           Ge  tau(   3) = ( -0.0000000  0.3333333  0.2000000  )
         4           Ge  tau(   4) = (  0.1111116  0.5555566  0.2336000  )
         5           Ge  tau(   5) = ( -0.0000000  0.6666667  0.2000000  )
         6           Ge  tau(   6) = (  0.1111116  0.8888899  0.2336000  )
         7           Ge  tau(   7) = (  0.3333333  0.0000000  0.2000000  )
         8           Ge  tau(   8) = (  0.4444450  0.2222233  0.2336000  )
         9           Ge  tau(   9) = (  0.3333333  0.3333333  0.2000000  )
        10           Ge  tau(  10) = (  0.4444450  0.5555566  0.2336000  )
        11           Ge  tau(  11) = (  0.3333333  0.6666667  0.2000000  )
        12           Ge  tau(  12) = (  0.4444450  0.8888899  0.2336000  )
        13           Ge  tau(  13) = (  0.6666667  0.0000000  0.2000000  )
        14           Ge  tau(  14) = (  0.7777783  0.2222233  0.2336000  )
        15           Ge  tau(  15) = (  0.6666667  0.3333333  0.2000000  )
        16           Ge  tau(  16) = (  0.7777783  0.5555566  0.2336000  )
        17           Ge  tau(  17) = (  0.6666667  0.6666667  0.2000000  )
        18           Ge  tau(  18) = (  0.7777783  0.8888899  0.2336000  )
        19           C   tau(  19) = (  0.0000000  0.0000000  0.0000000  )
        20           Si  tau(  20) = (  0.0833337  0.1666674  0.0000000  )
        21           C   tau(  21) = (  0.0000000  0.2500000  0.0000000  )
        22           Si  tau(  22) = (  0.0833337  0.4166674  0.0000000  )
        23           C   tau(  23) = (  0.0000000  0.5000000  0.0000000  )
        24           Si  tau(  24) = (  0.0833337  0.6666674  0.0000000  )
        25           C   tau(  25) = (  0.0000000  0.7500000  0.0000000  )
        26           Si  tau(  26) = (  0.0833337  0.9166674  0.0000000  )
        27           C   tau(  27) = (  0.2500000  0.0000000  0.0000000  )
        28           Si  tau(  28) = (  0.3333337  0.1666674  0.0000000  )
        29           C   tau(  29) = (  0.2500000  0.2500000  0.0000000  )
        30           Si  tau(  30) = (  0.3333337  0.4166674  0.0000000  )
        31           C   tau(  31) = (  0.2500000  0.5000000  0.0000000  )
        32           Si  tau(  32) = (  0.3333337  0.6666674  0.0000000  )
        33           C   tau(  33) = (  0.2500000  0.7500000  0.0000000  )
        34           Si  tau(  34) = (  0.3333337  0.9166674  0.0000000  )
        35           C   tau(  35) = (  0.5000000  0.0000000  0.0000000  )
        36           Si  tau(  36) = (  0.5833337  0.1666674  0.0000000  )
        37           C   tau(  37) = (  0.5000000  0.2500000  0.0000000  )
        38           Si  tau(  38) = (  0.5833337  0.4166674  0.0000000  )
        39           C   tau(  39) = (  0.5000000  0.5000000  0.0000000  )
        40           Si  tau(  40) = (  0.5833337  0.6666674  0.0000000  )
        41           C   tau(  41) = (  0.5000000  0.7500000  0.0000000  )
        42           Si  tau(  42) = (  0.5833337  0.9166674  0.0000000  )
        43           C   tau(  43) = (  0.7500000  0.0000000  0.0000000  )
        44           Si  tau(  44) = (  0.8333337  0.1666674  0.0000000  )
        45           C   tau(  45) = (  0.7500000  0.2500000  0.0000000  )
        46           Si  tau(  46) = (  0.8333337  0.4166674  0.0000000  )
        47           C   tau(  47) = (  0.7500000  0.5000000  0.0000000  )
        48           Si  tau(  48) = (  0.8333337  0.6666674  0.0000000  )
        49           C   tau(  49) = (  0.7500000  0.7500000  0.0000000  )
        50           Si  tau(  50) = (  0.8333337  0.9166674  0.0000000  )

     number of k points=     3  Methfessel-Paxton smearing, width (Ry)=  0.0060
                       cart. coord. in units 2pi/alat
        k(    1) = (   0.0000000   0.0000000   0.0000000), wk =   0.2222222
        k(    2) = (   0.0000000   0.3849002   0.0000000), wk =   1.3333333
        k(    3) = (   0.3333333   0.5773503   0.0000000), wk =   0.4444444

                       cryst. coord.
        k(    1) = (   0.0000000   0.0000000   0.0000000), wk =   0.2222222
        k(    2) = (   0.0000000   0.3333333   0.0000000), wk =   1.3333333
        k(    3) = (   0.3333333   0.3333333   0.0000000), wk =   0.4444444

     Dense  grid:   388955 G-vectors     FFT dimensions: (  81,  81, 135)

     Dynamical RAM for                 wfc:      88.97 MB

     Dynamical RAM for     wfc (w. buffer):     355.88 MB

     Dynamical RAM for           str. fact:      17.80 MB

     Dynamical RAM for           local pot:       0.00 MB

     Dynamical RAM for          nlocal pot:     461.17 MB

     Dynamical RAM for                qrad:       3.88 MB

     Dynamical RAM for          rho,v,vnew:      38.08 MB

     Dynamical RAM for               rhoin:      12.69 MB

     Dynamical RAM for            rho*nmix:      94.96 MB

     Dynamical RAM for           G-vectors:      25.22 MB

     Dynamical RAM for          h,s,v(r/c):      10.55 MB

     Dynamical RAM for          <psi|beta>:       1.14 MB

     Dynamical RAM for                 psi:     355.88 MB

     Dynamical RAM for                hpsi:     355.88 MB

     Dynamical RAM for      wfcinit/wfcrot:    1200.93 MB

     Estimated static dynamical RAM per process >       1.04 GB

     Estimated max dynamical RAM per process >       2.21 GB

     Initial potential from superposition of free atoms
     Check: negative starting charge=   -0.005972

     starting charge  199.97158, renormalised to  200.00000

     negative rho (up, down):  5.973E-03 0.000E+00
     Starting wfcs are  800 randomized atomic wfcs

     total cpu time spent up to now is      323.7 secs

     Self-consistent Calculation

     iteration #  1     ecut=    30.00 Ry     beta= 0.70
     Davidson diagonalization with overlap
     ethr =  1.00E-02,  avg # of iterations =  2.0

     negative rho (up, down):  1.240E-03 0.000E+00

     total cpu time spent up to now is      440.6 secs

     total energy              =    -444.81141357 Ry
     Harris-Foulkes estimate   =    -451.57663462 Ry
     estimated scf accuracy    <      10.18915845 Ry

     iteration #  2     ecut=    30.00 Ry     beta= 0.70
     Davidson diagonalization with overlap
     ethr =  5.09E-03,  avg # of iterations =  6.7

     negative rho (up, down):  8.009E-04 0.000E+00

     total cpu time spent up to now is      586.6 secs

     total energy              =    -442.99092089 Ry
     Harris-Foulkes estimate   =    -450.96481945 Ry
     estimated scf accuracy    <      17.49789211 Ry

     iteration #  3     ecut=    30.00 Ry     beta= 0.70
     Davidson diagonalization with overlap
     ethr =  5.09E-03,  avg # of iterations =  7.0

     negative rho (up, down):  4.505E-04 0.000E+00

     total cpu time spent up to now is      748.0 secs

     total energy              =    -438.07218578 Ry
     Harris-Foulkes estimate   =    -454.57951534 Ry
     estimated scf accuracy    <     152.32003255 Ry

     iteration #  4     ecut=    30.00 Ry     beta= 0.70
     Davidson diagonalization with overlap
     ethr =  5.09E-03,  avg # of iterations =  5.3

     negative rho (up, down):  2.014E-04 0.000E+00

     total cpu time spent up to now is      864.5 secs

     total energy              =    -448.34155885 Ry
     Harris-Foulkes estimate   =    -448.45744898 Ry
     estimated scf accuracy    <       0.29910768 Ry

     iteration #  5     ecut=    30.00 Ry     beta= 0.70
     Davidson diagonalization with overlap
     ethr =  1.50E-04,  avg # of iterations = 10.3

     negative rho (up, down):  7.250E-06 0.000E+00

     total cpu time spent up to now is     1062.6 secs

     total energy              =    -448.57104533 Ry
     Harris-Foulkes estimate   =    -448.64188341 Ry
     estimated scf accuracy    <       0.22500916 Ry

     iteration #  6     ecut=    30.00 Ry     beta= 0.70
     Davidson diagonalization with overlap
     ethr =  1.13E-04,  avg # of iterations =  2.0

     total cpu time spent up to now is     1164.2 secs

     total energy              =    -448.59296041 Ry
     Harris-Foulkes estimate   =    -448.60148648 Ry
     estimated scf accuracy    <       0.02078927 Ry

     iteration #  7     ecut=    30.00 Ry     beta= 0.70
     Davidson diagonalization with overlap
     ethr =  1.04E-05,  avg # of iterations =  7.0

     total cpu time spent up to now is     1316.6 secs

     total energy              =    -448.59451683 Ry
     Harris-Foulkes estimate   =    -448.60138492 Ry
     estimated scf accuracy    <       0.01753198 Ry

     iteration #  8     ecut=    30.00 Ry     beta= 0.70
     Davidson diagonalization with overlap
     ethr =  8.77E-06,  avg # of iterations =  4.3

     total cpu time spent up to now is     1430.7 secs

     total energy              =    -448.59775833 Ry
     Harris-Foulkes estimate   =    -448.59951149 Ry
     estimated scf accuracy    <       0.00562511 Ry

     iteration #  9     ecut=    30.00 Ry     beta= 0.70
     Davidson diagonalization with overlap
     ethr =  2.81E-06,  avg # of iterations =  3.0

     total cpu time spent up to now is     1536.9 secs

     total energy              =    -448.59863890 Ry
     Harris-Foulkes estimate   =    -448.59867255 Ry
     estimated scf accuracy    <       0.00012760 Ry

     iteration # 10     ecut=    30.00 Ry     beta= 0.70
     Davidson diagonalization with overlap
     ethr =  6.38E-08,  avg # of iterations =  3.7

     total cpu time spent up to now is     1690.2 secs

     total energy              =    -448.59867840 Ry
     Harris-Foulkes estimate   =    -448.59871070 Ry
     estimated scf accuracy    <       0.00011028 Ry

     iteration # 11     ecut=    30.00 Ry     beta= 0.70
     Davidson diagonalization with overlap
     ethr =  5.51E-08,  avg # of iterations =  2.0

     total cpu time spent up to now is     1795.9 secs

     End of self-consistent calculation

          k = 0.0000 0.0000 0.0000 ( 48515 PWs)   bands (ev):

   -15.6316 -14.6147 -14.6094 -14.6094 -14.6001 -14.6001 -14.5955 -12.8519
   -12.8504 -12.8388 -12.8388 -12.8369 -12.8369 -12.6122 -12.6122 -12.6120
   -12.1118 -10.9853 -10.9814 -10.9814 -10.9784 -10.9784 -10.9763  -9.6693
    -9.6693  -9.6691  -9.1713  -9.1702  -9.1588  -9.1588  -8.4324  -8.4324
    -8.4267  -8.4267  -8.4257  -8.4253  -6.9915  -6.9901  -6.9900  -6.9873
    -6.9872  -6.9864  -6.4233  -6.4233  -6.4146  -6.4146  -6.4132  -6.4131
    -6.2272  -6.2239  -6.2239  -6.2184  -6.2184  -6.2157  -5.6689  -4.6227
    -4.6227  -4.5497  -4.5444  -4.5444  -4.5387  -4.5384  -4.5384  -4.5351
    -4.5351  -4.5308  -4.3678  -3.8615  -3.8601  -3.8601  -3.8565  -3.8564
    -3.8545  -2.9576  -2.9575  -2.7137  -2.7026  -2.6929  -2.6929  -2.6918
    -2.6918  -2.6873  -2.6701  -2.6701  -2.6625  -2.6608  -2.6576  -2.6576
    -2.6510  -2.6204  -2.6204  -2.5950  -2.5950  -2.3969  -2.3966  -2.3966
    -1.4900  -1.4899  -0.9369  -0.9369  -0.9125  -0.9109  -0.6962   0.2210
     0.2217   0.2218   0.3094   0.3095   0.3121   0.7752   0.7782   0.7782
     1.0501   1.0551   1.0551   1.0883   1.2507   1.2507   1.2575   1.8043

     occupation numbers 
     1.0000   1.0000   1.0000   1.0000   1.0000   1.0000   1.0000   1.0000
     1.0000   1.0000   1.0000   1.0000   1.0000   1.0000   1.0000   1.0000
     1.0000   1.0000   1.0000   1.0000   1.0000   1.0000   1.0000   1.0000
     1.0000   1.0000   1.0000   1.0000   1.0000   1.0000   1.0000   1.0000
     1.0000   1.0000   1.0000   1.0000   1.0000   1.0000   1.0000   1.0000
     1.0000   1.0000   1.0000   1.0000   1.0000   1.0000   1.0000   1.0000
     1.0000   1.0000   1.0000   1.0000   1.0000   1.0000   1.0000   1.0000
     1.0000   1.0000   1.0000   1.0000   1.0000   1.0000   1.0000   1.0000
     1.0000   1.0000   1.0000   1.0000   1.0000   1.0000   1.0000   1.0000
     1.0000   1.0000   1.0000   1.0000   1.0000   1.0000   1.0000   1.0000
     1.0000   1.0000   1.0000   1.0000   1.0000   1.0000   1.0000   1.0000
     1.0000   1.0000   1.0000   1.0000   1.0000   1.0000   1.0000   1.0000
     1.0000   1.0000   0.6288   0.6288   0.3789   0.3637  -0.0003  -0.0000
    -0.0000  -0.0000  -0.0000  -0.0000  -0.0000  -0.0000  -0.0000  -0.0000
    -0.0000  -0.0000  -0.0000  -0.0000  -0.0000  -0.0000  -0.0000  -0.0000

          k = 0.0000 0.3849 0.0000 ( 48609 PWs)   bands (ev):

   -15.5148 -15.1678 -14.8272 -14.8271 -14.1722 -14.1718 -13.8631 -13.5585
   -13.5581 -13.0581 -12.7918 -12.7909 -12.6766 -12.6761 -12.2496 -12.2493
   -11.9809 -11.5933 -11.2164 -11.2158 -10.5268 -10.5262 -10.2968  -9.8966
    -9.8960  -9.4273  -9.4271  -9.0516  -9.0070  -9.0066  -8.8447  -8.8447
    -8.4176  -8.4172  -8.1177  -7.7434  -7.7346  -7.7344  -7.6937  -7.6935
    -7.0033  -7.0031  -6.9530  -6.9530  -6.4447  -6.4445  -5.8713  -5.8713
    -5.6373  -5.5553  -5.5497  -5.5457  -5.4476  -5.4473  -5.0862  -4.9694
    -4.9694  -4.7699  -4.7698  -4.7110  -4.5413  -4.4575  -4.4236  -4.4235
    -4.2882  -4.2881  -4.2139  -4.0844  -4.0841  -3.9313  -3.9310  -3.7566
    -3.4780  -3.4515  -3.4281  -3.4279  -3.4196  -3.4193  -3.0998  -3.0195
    -2.9948  -2.9944  -2.9288  -2.9009  -2.7319  -2.7314  -2.6244  -2.5907
    -2.5899  -2.4888  -2.4879  -2.2485  -2.1774  -2.1768  -2.1407  -1.9700
    -1.9697  -1.7447  -1.5786  -1.5780  -0.3253  -0.3240  -0.1786   0.1369
     0.1370   0.4928   0.6112   0.7612   0.8158   0.8176   1.1304   1.1418
     1.1991   1.2346   1.2376   1.2729   1.4880   1.4906   1.5809   1.5821

     occupation numbers 
     1.0000   1.0000   1.0000   1.0000   1.0000   1.0000   1.0000   1.0000
     1.0000   1.0000   1.0000   1.0000   1.0000   1.0000   1.0000   1.0000
     1.0000   1.0000   1.0000   1.0000   1.0000   1.0000   1.0000   1.0000
     1.0000   1.0000   1.0000   1.0000   1.0000   1.0000   1.0000   1.0000
     1.0000   1.0000   1.0000   1.0000   1.0000   1.0000   1.0000   1.0000
     1.0000   1.0000   1.0000   1.0000   1.0000   1.0000   1.0000   1.0000
     1.0000   1.0000   1.0000   1.0000   1.0000   1.0000   1.0000   1.0000
     1.0000   1.0000   1.0000   1.0000   1.0000   1.0000   1.0000   1.0000
     1.0000   1.0000   1.0000   1.0000   1.0000   1.0000   1.0000   1.0000
     1.0000   1.0000   1.0000   1.0000   1.0000   1.0000   1.0000   1.0000
     1.0000   1.0000   1.0000   1.0000   1.0000   1.0000   1.0000   1.0000
     1.0000   1.0000   1.0000   1.0000   1.0000   1.0000   1.0000   1.0000
     1.0000   1.0000   1.0000   1.0000  -0.0000  -0.0000  -0.0000  -0.0000
    -0.0000  -0.0000  -0.0000  -0.0000  -0.0000  -0.0000  -0.0000  -0.0000
    -0.0000  -0.0000  -0.0000  -0.0000  -0.0000  -0.0000  -0.0000  -0.0000

          k = 0.3333 0.5774 0.0000 ( 48552 PWs)   bands (ev):

   -15.2921 -15.2798 -15.2766 -14.2773 -14.2771 -14.2770 -13.3897 -13.3849
   -13.3846 -13.3759 -13.3756 -13.3714 -12.3885 -12.3752 -12.3731 -12.0162
   -11.7238 -11.7222 -11.7173 -10.6145 -10.6140 -10.6128 -10.0386 -10.0349
   -10.0348  -9.3891  -9.3840  -9.3788  -8.9717  -8.4135  -8.4125  -8.4104
    -8.4014  -8.3987  -8.3964  -8.3746  -8.3742  -8.3716  -7.4725  -7.4612
    -7.4583  -7.4576  -6.5705  -6.5703  -6.5703  -6.0112  -6.0081  -6.0038
    -5.4266  -5.4180  -5.4179  -5.0578  -5.0529  -5.0490  -4.7892  -4.7884
    -4.7849  -4.7802  -4.7768  -4.7760  -4.7431  -4.7430  -4.7429  -4.2891
    -4.2856  -4.2826  -4.1954  -4.1951  -4.1951  -3.8153  -3.8135  -3.8095
    -3.5961  -3.5942  -3.5899  -3.4220  -3.4214  -3.4138  -3.2710  -3.2641
    -3.2624  -3.2004  -3.1992  -3.1934  -2.9913  -2.9912  -2.9891  -2.2885
    -2.2881  -2.2861  -2.2774  -2.2629  -2.2369  -2.1309  -2.1023  -2.0840
    -1.7961  -1.7885  -1.7880  -1.6691  -0.3332  -0.3095  -0.2983   0.2483
     0.3255   0.4192   0.9545   0.9938   1.0940   1.1580   1.2695   1.2701
     1.2711   1.3719   1.3762   1.3792   1.3833   1.3836   1.3842   2.0801

     occupation numbers 
     1.0000   1.0000   1.0000   1.0000   1.0000   1.0000   1.0000   1.0000
     1.0000   1.0000   1.0000   1.0000   1.0000   1.0000   1.0000   1.0000
     1.0000   1.0000   1.0000   1.0000   1.0000   1.0000   1.0000   1.0000
     1.0000   1.0000   1.0000   1.0000   1.0000   1.0000   1.0000   1.0000
     1.0000   1.0000   1.0000   1.0000   1.0000   1.0000   1.0000   1.0000
     1.0000   1.0000   1.0000   1.0000   1.0000   1.0000   1.0000   1.0000
     1.0000   1.0000   1.0000   1.0000   1.0000   1.0000   1.0000   1.0000
     1.0000   1.0000   1.0000   1.0000   1.0000   1.0000   1.0000   1.0000
     1.0000   1.0000   1.0000   1.0000   1.0000   1.0000   1.0000   1.0000
     1.0000   1.0000   1.0000   1.0000   1.0000   1.0000   1.0000   1.0000
     1.0000   1.0000   1.0000   1.0000   1.0000   1.0000   1.0000   1.0000
     1.0000   1.0000   1.0000   1.0000   1.0000   1.0000   1.0000   1.0000
     1.0000   1.0000   1.0000   1.0000  -0.0000  -0.0000  -0.0000  -0.0000
    -0.0000  -0.0000  -0.0000  -0.0000  -0.0000  -0.0000  -0.0000  -0.0000
    -0.0000  -0.0000  -0.0000  -0.0000  -0.0000  -0.0000  -0.0000  -0.0000

     the Fermi energy is    -0.9243 ev

!    total energy              =    -448.59865275 Ry
     Harris-Foulkes estimate   =    -448.59869079 Ry
     estimated scf accuracy    <       0.00004234 Ry

     The total energy is the sum of the following terms:

     one-electron contribution =   -2863.02096330 Ry
     hartree contribution      =    1469.46918064 Ry
     xc contribution           =    -135.69404729 Ry
     ewald contribution        =    1081.09100727 Ry
     Dispersion Correction     =      -0.44313161 Ry
     smearing contrib. (-TS)   =      -0.00069847 Ry

     convergence has been achieved in  11 iterations

     Writing output data file Ge+SiC_II__4.0.save/

     init_run     :    322.17s CPU    323.53s WALL (       1 calls)
     electrons    :   1466.71s CPU   1472.24s WALL (       1 calls)

     Called by init_run:
     wfcinit      :    320.40s CPU    321.66s WALL (       1 calls)
     wfcinit:atom :      0.57s CPU      1.05s WALL (       3 calls)
     wfcinit:wfcr :    314.75s CPU    315.30s WALL (       3 calls)
     potinit      :      0.84s CPU      0.89s WALL (       1 calls)
     hinit0       :      0.83s CPU      0.83s WALL (       1 calls)

     Called by electrons:
     c_bands      :   1365.50s CPU   1370.89s WALL (      11 calls)
     sum_band     :     93.35s CPU     93.41s WALL (      11 calls)
     v_of_rho     :      6.48s CPU      6.53s WALL (      12 calls)
     v_h          :      0.39s CPU      0.40s WALL (      12 calls)
     v_xc         :      6.09s CPU      6.13s WALL (      12 calls)
     mix_rho      :      1.33s CPU      1.36s WALL (      11 calls)

     Called by c_bands:
     init_us_2    :      8.23s CPU      8.31s WALL (      69 calls)
     cegterg      :   1337.63s CPU   1342.99s WALL (      33 calls)

     Called by sum_band:

     Called by *egterg:
     h_psi        :   1150.75s CPU   1153.48s WALL (     196 calls)
     g_psi        :      2.51s CPU      2.51s WALL (     160 calls)
     cdiaghg      :     20.58s CPU     20.59s WALL (     193 calls)
     cegterg:over :    162.07s CPU    162.08s WALL (     160 calls)
     cegterg:upda :     98.41s CPU     99.92s WALL (     160 calls)
     cegterg:last :     43.89s CPU     43.89s WALL (      33 calls)

     Called by h_psi:
     h_psi:pot    :   1148.43s CPU   1148.89s WALL (     196 calls)
     h_psi:calbec :    317.58s CPU    317.59s WALL (     196 calls)
     vloc_psi     :    546.39s CPU    546.82s WALL (     196 calls)
     add_vuspsi   :    284.46s CPU    284.48s WALL (     196 calls)

     General routines
     calbec       :    317.58s CPU    317.59s WALL (     196 calls)
     fft          :      2.70s CPU      2.70s WALL (     120 calls)
     ffts         :      0.26s CPU      0.26s WALL (      11 calls)
     fftw         :    539.03s CPU    539.31s WALL (   30612 calls)

     Parallel routines

     PWSCF        : 29m49.19s CPU    29m56.32s WALL


   This run was terminated on:   9:48:33  19Apr2020            

=------------------------------------------------------------------------------=
   JOB DONE.
=------------------------------------------------------------------------------=
