
     Program BANDS v.6.3 starts on 20Apr2020 at  1:35:34 

     This program is part of the open-source Quantum ESPRESSO suite
     for quantum simulation of materials; please cite
         "P. Giannozzi et al., J. Phys.:Condens. Matter 21 395502 (2009);
         "P. Giannozzi et al., J. Phys.:Condens. Matter 29 465901 (2017);
          URL http://www.quantum-espresso.org", 
     in publications or presentations arising from this work. More details at
     http://www.quantum-espresso.org/quote

     Parallel version (MPI), running on     1 processors

     MPI processes distributed on     1 nodes

     Reading data from directory:
     /home/nano3/Desktop/RAYID/Ge+SiC/Ge+SiC_II/work/Ge+SiC_II__4.0.save/

     IMPORTANT: XC functional enforced from input :
     Exchange-correlation      = PBE ( 1  4  3  4 0 0)
     Any further DFT definition will be discarded
     Please, verify this is what you really want

               file Ge.pbe-mt_fhi.UPF: wavefunction(s)  4d 4f renormalized
               file C.pbe-mt_fhi.UPF: wavefunction(s)  4f renormalized
               file Si.pbe-mt_fhi.UPF: wavefunction(s)  4f renormalized

     G-vector sticks info
     --------------------
     sticks:   dense  smooth     PW     G-vecs:    dense   smooth      PW
     Sum        4429    4429   1177               388955   388955   53541

     high-symmetry point:  0.0000 0.5774 0.0000   x coordinate   0.0000
     high-symmetry point:  0.3333 0.5774 0.0000   x coordinate   0.3333
     high-symmetry point:  0.0000 0.0000 0.0000   x coordinate   1.0000
     high-symmetry point:  0.0000 0.5774 0.0000   x coordinate   1.5774

     Plottable bands (eV) written to file /home/nano3/Desktop/RAYID/Ge+SiC/Ge+SiC_II/OUT/Ge+SiC_II__4.0.band.gnu
     Bands written to file /home/nano3/Desktop/RAYID/Ge+SiC/Ge+SiC_II/OUT/Ge+SiC_II__4.0.band

 **************************************************************************

                    xk=(   0.00000,   0.57735,   0.00000  )

     point group C_s (m)    
     there are  2 classes
     the character table:

       E     s    
A'     1.00  1.00
A''    1.00 -1.00

     the symmetry operations in each class and the name of the first element:

     E        1
                                                                 
     s        2
                                                                 

     Band symmetry, C_s (m)     point group:

     e(  1 -  1) =    -15.40247  eV     1   --> A'             
     e(  2 -  2) =    -15.39804  eV     1   --> A'             
     e(  3 -  3) =    -14.88662  eV     1   --> A''            
     e(  4 -  4) =    -14.88602  eV     1   --> A'             
     e(  5 -  5) =    -13.91606  eV     1   --> A''            
     e(  6 -  6) =    -13.91575  eV     1   --> A''            
     e(  7 -  7) =    -13.91545  eV     1   --> A'             
     e(  8 -  8) =    -13.91526  eV     1   --> A'             
     e(  9 -  9) =    -13.48893  eV     1   --> A'             
     e( 10 - 10) =    -13.48327  eV     1   --> A'             
     e( 11 - 11) =    -12.77224  eV     1   --> A'             
     e( 12 - 12) =    -12.77050  eV     1   --> A''            
     e( 13 - 13) =    -12.76593  eV     1   --> A''            
     e( 14 - 14) =    -12.76432  eV     1   --> A'             
     e( 15 - 15) =    -12.18405  eV     1   --> A''            
     e( 16 - 16) =    -12.18352  eV     1   --> A'             
     e( 17 - 17) =    -11.80171  eV     1   --> A'             
     e( 18 - 18) =    -11.79971  eV     1   --> A'             
     e( 19 - 19) =    -11.22956  eV     1   --> A''            
     e( 20 - 20) =    -11.22772  eV     1   --> A'             
     e( 21 - 21) =    -10.21376  eV     1   --> A''            
     e( 22 - 22) =    -10.21221  eV     1   --> A''            
     e( 23 - 23) =    -10.21173  eV     1   --> A'             
     e( 24 - 24) =    -10.21062  eV     1   --> A'             
     e( 25 - 25) =    -10.12881  eV     1   --> A'             
     e( 26 - 26) =     -9.19355  eV     1   --> A''            
     e( 27 - 27) =     -9.19107  eV     1   --> A'             
     e( 28 - 28) =     -9.18806  eV     1   --> A'             
     e( 29 - 29) =     -9.18566  eV     1   --> A''            
     e( 30 - 30) =     -9.13587  eV     1   --> A''            
     e( 31 - 31) =     -9.13548  eV     1   --> A'             
     e( 32 - 32) =     -8.47414  eV     1   --> A'             
     e( 33 - 33) =     -8.47276  eV     1   --> A'             
     e( 34 - 34) =     -8.30674  eV     1   --> A'             
     e( 35 - 35) =     -8.03813  eV     1   --> A''            
     e( 36 - 36) =     -8.03624  eV     1   --> A'             
     e( 37 - 37) =     -8.03604  eV     1   --> A''            
     e( 38 - 38) =     -8.03563  eV     1   --> A'             
     e( 39 - 39) =     -7.40697  eV     1   --> A'             
     e( 40 - 40) =     -7.40672  eV     1   --> A''            
     e( 41 - 41) =     -7.40659  eV     1   --> A'             
     e( 42 - 42) =     -7.40644  eV     1   --> A''            
     e( 43 - 43) =     -7.05162  eV     1   --> A'             
     e( 44 - 44) =     -7.05139  eV     1   --> A''            
     e( 45 - 45) =     -6.34005  eV     1   --> A''            
     e( 46 - 46) =     -6.33942  eV     1   --> A'             
     e( 47 - 47) =     -5.46252  eV     1   --> A'             
     e( 48 - 48) =     -5.45810  eV     1   --> A''            
     e( 49 - 49) =     -5.45007  eV     1   --> A'             
     e( 50 - 50) =     -5.44847  eV     1   --> A'             
     e( 51 - 52) =     -5.43991  eV     2   --> A'             
     e( 51 - 52) =     -5.43991  eV     2   --> A''            
     e( 53 - 53) =     -5.43596  eV     1   --> A''            
     e( 54 - 54) =     -5.43574  eV     1   --> A'             
     e( 55 - 55) =     -4.94195  eV     1   --> A'             
     e( 56 - 57) =     -4.94130  eV     2   --> A'             
     e( 56 - 57) =     -4.94130  eV     2   --> A''            
     e( 58 - 58) =     -4.94084  eV     1   --> A''            
     e( 59 - 59) =     -4.88060  eV     1   --> A'             
     e( 60 - 60) =     -4.88031  eV     1   --> A'             
     e( 61 - 61) =     -4.82291  eV     1   --> A''            
     e( 62 - 62) =     -4.82227  eV     1   --> A'             
     e( 63 - 63) =     -4.39128  eV     1   --> A''            
     e( 64 - 64) =     -4.38622  eV     1   --> A''            
     e( 65 - 65) =     -4.07202  eV     1   --> A'             
     e( 66 - 66) =     -4.06862  eV     1   --> A'             
     e( 67 - 67) =     -4.02488  eV     1   --> A''            
     e( 68 - 68) =     -4.02394  eV     1   --> A'             
     e( 69 - 70) =     -3.90449  eV     2   --> A'             
     e( 69 - 70) =     -3.90449  eV     2   --> A''            
     e( 71 - 71) =     -3.90376  eV     1   --> A''            
     e( 72 - 72) =     -3.90301  eV     1   --> A'             
     e( 73 - 73) =     -3.77923  eV     1   --> A''            
     e( 74 - 74) =     -3.77837  eV     1   --> A''            
     e( 75 - 76) =     -3.77820  eV     2   -->   2 A'             
     e( 77 - 77) =     -3.37898  eV     1   --> A'             
     e( 78 - 78) =     -3.31990  eV     1   --> A'             
     e( 79 - 79) =     -3.29755  eV     1   --> A''            
     e( 80 - 80) =     -3.29195  eV     1   --> A''            
     e( 81 - 81) =     -3.04561  eV     1   --> A''            
     e( 82 - 82) =     -3.04468  eV     1   --> A'             
     e( 83 - 83) =     -2.95977  eV     1   --> A'             
     e( 84 - 84) =     -2.95859  eV     1   --> A'             
     e( 85 - 85) =     -2.94237  eV     1   --> A''            
     e( 86 - 86) =     -2.75600  eV     1   --> A''            
     e( 87 - 87) =     -2.75498  eV     1   --> A'             
     e( 88 - 88) =     -2.57157  eV     1   --> A'             
     e( 89 - 89) =     -2.56903  eV     1   --> A''            
     e( 90 - 90) =     -2.56348  eV     1   --> A''            
     e( 91 - 91) =     -2.56098  eV     1   --> A'             
     e( 92 - 92) =     -2.03108  eV     1   --> A'             
     e( 93 - 93) =     -1.97397  eV     1   --> A''            
     e( 94 - 94) =     -1.97202  eV     1   --> A''            
     e( 95 - 95) =     -1.92496  eV     1   --> A''            
     e( 96 - 96) =     -1.92249  eV     1   --> A'             
     e( 97 - 97) =     -1.88335  eV     1   --> A'             
     e( 98 - 98) =     -1.88316  eV     1   --> A''            
     e( 99 - 99) =     -1.83991  eV     1   --> A''            
     e(100 -100) =     -1.83813  eV     1   --> A'             
     e(101 -101) =     -0.26003  eV     1   --> A'             
     e(102 -102) =     -0.07762  eV     1   --> A''            
     e(103 -103) =     -0.07544  eV     1   --> A'             
     e(104 -104) =     -0.03412  eV     1   --> A''            
     e(105 -105) =     -0.03253  eV     1   --> A'             
     e(106 -106) =      0.57052  eV     1   --> A'             
     e(107 -107) =      0.83644  eV     1   --> A'             
     e(108 -108) =      0.83870  eV     1   --> A'             
     e(109 -109) =      0.92462  eV     1   --> A''            
     e(110 -110) =      0.92489  eV     1   --> A'             
     e(111 -111) =      1.00426  eV     1   --> A''            
     e(112 -112) =      1.01443  eV     1   --> A'             
     e(113 -113) =      1.27786  eV     1   --> A'             
     e(114 -114) =      1.28686  eV     1   --> A'             
     e(115 -115) =      1.31117  eV     1   --> A''            
     e(116 -116) =      1.32058  eV     1   --> A'             
     e(117 -117) =      1.46323  eV     1   --> A'             
     e(118 -118) =      1.46962  eV     1   --> A''            
     e(119 -119) =      2.08632  eV     1   --> A'             
     e(120 -120) =      2.12163  eV     1   --> A'             

 **************************************************************************

 **************************************************************************

                    xk=(   0.01667,   0.57735,   0.00000  )

     point group C_1 (1)    
     there are  1 classes
     the character table:

       E    
A      1.00

     the symmetry operations in each class and the name of the first element:

     E        1
                                                                 

     Band symmetry, C_1 (1)     point group:

     e(  1 -  1) =    -15.40220  eV     1   --> A              
     e(  2 -  2) =    -15.39776  eV     1   --> A              
     e(  3 -  3) =    -14.91121  eV     1   --> A              
     e(  4 -  4) =    -14.86074  eV     1   --> A              
     e(  5 -  6) =    -13.93839  eV     2   -->   2 A              
     e(  7 -  8) =    -13.89260  eV     2   -->   2 A              
     e(  9 -  9) =    -13.48859  eV     1   --> A              
     e( 10 - 10) =    -13.48293  eV     1   --> A              
     e( 11 - 11) =    -12.79893  eV     1   --> A              
     e( 12 - 12) =    -12.79419  eV     1   --> A              
     e( 13 - 13) =    -12.74289  eV     1   --> A              
     e( 14 - 14) =    -12.73813  eV     1   --> A              
     e( 15 - 15) =    -12.19466  eV     1   --> A              
     e( 16 - 16) =    -12.17291  eV     1   --> A              
     e( 17 - 17) =    -11.80140  eV     1   --> A              
     e( 18 - 18) =    -11.79941  eV     1   --> A              
     e( 19 - 19) =    -11.25626  eV     1   --> A              
     e( 20 - 20) =    -11.20034  eV     1   --> A              
     e( 21 - 21) =    -10.23156  eV     1   --> A              
     e( 22 - 22) =    -10.23078  eV     1   --> A              
     e( 23 - 23) =    -10.19356  eV     1   --> A              
     e( 24 - 24) =    -10.19290  eV     1   --> A              
     e( 25 - 25) =    -10.12842  eV     1   --> A              
     e( 26 - 26) =     -9.21816  eV     1   --> A              
     e( 27 - 27) =     -9.21390  eV     1   --> A              
     e( 28 - 28) =     -9.16284  eV     1   --> A              
     e( 29 - 29) =     -9.15863  eV     1   --> A              
     e( 30 - 30) =     -9.14851  eV     1   --> A              
     e( 31 - 31) =     -9.12260  eV     1   --> A              
     e( 32 - 32) =     -8.47391  eV     1   --> A              
     e( 33 - 33) =     -8.47252  eV     1   --> A              
     e( 34 - 34) =     -8.30686  eV     1   --> A              
     e( 35 - 35) =     -8.06616  eV     1   --> A              
     e( 36 - 36) =     -8.06533  eV     1   --> A              
     e( 37 - 37) =     -8.00704  eV     1   --> A              
     e( 38 - 38) =     -8.00626  eV     1   --> A              
     e( 39 - 40) =     -7.45565  eV     2   -->   2 A              
     e( 41 - 42) =     -7.35795  eV     2   -->   2 A              
     e( 43 - 43) =     -7.09214  eV     1   --> A              
     e( 44 - 44) =     -7.00748  eV     1   --> A              
     e( 45 - 45) =     -6.39661  eV     1   --> A              
     e( 46 - 46) =     -6.28251  eV     1   --> A              
     e( 47 - 47) =     -5.51567  eV     1   --> A              
     e( 48 - 48) =     -5.47017  eV     1   --> A              
     e( 49 - 49) =     -5.46849  eV     1   --> A              
     e( 50 - 50) =     -5.45352  eV     1   --> A              
     e( 51 - 51) =     -5.44818  eV     1   --> A              
     e( 52 - 52) =     -5.40723  eV     1   --> A              
     e( 53 - 53) =     -5.40542  eV     1   --> A              
     e( 54 - 54) =     -5.39777  eV     1   --> A              
     e( 55 - 55) =     -4.94219  eV     1   --> A              
     e( 56 - 56) =     -4.94194  eV     1   --> A              
     e( 57 - 58) =     -4.93930  eV     2   -->   2 A              
     e( 59 - 59) =     -4.88100  eV     1   --> A              
     e( 60 - 60) =     -4.88072  eV     1   --> A              
     e( 61 - 61) =     -4.84759  eV     1   --> A              
     e( 62 - 62) =     -4.79636  eV     1   --> A              
     e( 63 - 63) =     -4.39105  eV     1   --> A              
     e( 64 - 64) =     -4.38599  eV     1   --> A              
     e( 65 - 65) =     -4.07252  eV     1   --> A              
     e( 66 - 66) =     -4.06909  eV     1   --> A              
     e( 67 - 67) =     -4.05730  eV     1   --> A              
     e( 68 - 68) =     -3.98922  eV     1   --> A              
     e( 69 - 69) =     -3.91453  eV     1   --> A              
     e( 70 - 70) =     -3.91355  eV     1   --> A              
     e( 71 - 71) =     -3.89402  eV     1   --> A              
     e( 72 - 72) =     -3.89295  eV     1   --> A              
     e( 73 - 73) =     -3.79987  eV     1   --> A              
     e( 74 - 74) =     -3.79937  eV     1   --> A              
     e( 75 - 75) =     -3.75652  eV     1   --> A              
     e( 76 - 76) =     -3.75616  eV     1   --> A              
     e( 77 - 77) =     -3.37874  eV     1   --> A              
     e( 78 - 78) =     -3.31968  eV     1   --> A              
     e( 79 - 79) =     -3.29525  eV     1   --> A              
     e( 80 - 80) =     -3.28966  eV     1   --> A              
     e( 81 - 81) =     -3.08458  eV     1   --> A              
     e( 82 - 82) =     -3.00572  eV     1   --> A              
     e( 83 - 83) =     -2.95980  eV     1   --> A              
     e( 84 - 84) =     -2.95862  eV     1   --> A              
     e( 85 - 85) =     -2.94467  eV     1   --> A              
     e( 86 - 86) =     -2.77591  eV     1   --> A              
     e( 87 - 87) =     -2.73430  eV     1   --> A              
     e( 88 - 88) =     -2.59836  eV     1   --> A              
     e( 89 - 89) =     -2.59471  eV     1   --> A              
     e( 90 - 90) =     -2.53810  eV     1   --> A              
     e( 91 - 91) =     -2.53415  eV     1   --> A              
     e( 92 - 92) =     -2.02995  eV     1   --> A              
     e( 93 - 93) =     -1.97516  eV     1   --> A              
     e( 94 - 94) =     -1.97321  eV     1   --> A              
     e( 95 - 95) =     -1.93890  eV     1   --> A              
     e( 96 - 96) =     -1.90867  eV     1   --> A              
     e( 97 - 97) =     -1.89819  eV     1   --> A              
     e( 98 - 98) =     -1.86868  eV     1   --> A              
     e( 99 - 99) =     -1.85205  eV     1   --> A              
     e(100 -100) =     -1.82605  eV     1   --> A              
     e(101 -101) =     -0.26013  eV     1   --> A              
     e(102 -102) =     -0.09644  eV     1   --> A              
     e(103 -103) =     -0.06228  eV     1   --> A              
     e(104 -104) =     -0.04894  eV     1   --> A              
     e(105 -105) =     -0.01148  eV     1   --> A              
     e(106 -106) =      0.57282  eV     1   --> A              
     e(107 -107) =      0.83858  eV     1   --> A              
     e(108 -108) =      0.84084  eV     1   --> A              
     e(109 -109) =      0.89653  eV     1   --> A              
     e(110 -110) =      0.95242  eV     1   --> A              
     e(111 -111) =      1.00363  eV     1   --> A              
     e(112 -112) =      1.01533  eV     1   --> A              
     e(113 -113) =      1.27793  eV     1   --> A              
     e(114 -114) =      1.28634  eV     1   --> A              
     e(115 -115) =      1.28720  eV     1   --> A              
     e(116 -116) =      1.34683  eV     1   --> A              
     e(117 -117) =      1.44116  eV     1   --> A              
     e(118 -118) =      1.49223  eV     1   --> A              
     e(119 -119) =      2.08632  eV     1   --> A              
     e(120 -120) =      2.12148  eV     1   --> A              

 **************************************************************************

 **************************************************************************

                    xk=(   0.03333,   0.57735,   0.00000  )

     Band symmetry, C_1 (1)     point group:

     e(  1 -  1) =    -15.40159  eV     1   --> A              
     e(  2 -  2) =    -15.39715  eV     1   --> A              
     e(  3 -  3) =    -14.93599  eV     1   --> A              
     e(  4 -  4) =    -14.83481  eV     1   --> A              
     e(  5 -  6) =    -13.96079  eV     2   -->   2 A              
     e(  7 -  8) =    -13.86940  eV     2   -->   2 A              
     e(  9 -  9) =    -13.48803  eV     1   --> A              
     e( 10 - 10) =    -13.48237  eV     1   --> A              
     e( 11 - 11) =    -12.82775  eV     1   --> A              
     e( 12 - 12) =    -12.82302  eV     1   --> A              
     e( 13 - 13) =    -12.71605  eV     1   --> A              
     e( 14 - 14) =    -12.71126  eV     1   --> A              
     e( 15 - 15) =    -12.20578  eV     1   --> A              
     e( 16 - 16) =    -12.16225  eV     1   --> A              
     e( 17 - 17) =    -11.80064  eV     1   --> A              
     e( 18 - 18) =    -11.79865  eV     1   --> A              
     e( 19 - 19) =    -11.28361  eV     1   --> A              
     e( 20 - 20) =    -11.17172  eV     1   --> A              
     e( 21 - 21) =    -10.25092  eV     1   --> A              
     e( 22 - 22) =    -10.25011  eV     1   --> A              
     e( 23 - 23) =    -10.17517  eV     1   --> A              
     e( 24 - 24) =    -10.17455  eV     1   --> A              
     e( 25 - 25) =    -10.12760  eV     1   --> A              
     e( 26 - 26) =     -9.24339  eV     1   --> A              
     e( 27 - 27) =     -9.23912  eV     1   --> A              
     e( 28 - 28) =     -9.16104  eV     1   --> A              
     e( 29 - 29) =     -9.13342  eV     1   --> A              
     e( 30 - 30) =     -9.12934  eV     1   --> A              
     e( 31 - 31) =     -9.11004  eV     1   --> A              
     e( 32 - 32) =     -8.47357  eV     1   --> A              
     e( 33 - 33) =     -8.47218  eV     1   --> A              
     e( 34 - 34) =     -8.30727  eV     1   --> A              
     e( 35 - 35) =     -8.09474  eV     1   --> A              
     e( 36 - 36) =     -8.09392  eV     1   --> A              
     e( 37 - 37) =     -7.97687  eV     1   --> A              
     e( 38 - 38) =     -7.97608  eV     1   --> A              
     e( 39 - 40) =     -7.50636  eV     2   -->   2 A              
     e( 41 - 42) =     -7.30942  eV     2   -->   2 A              
     e( 43 - 43) =     -7.13111  eV     1   --> A              
     e( 44 - 44) =     -6.96350  eV     1   --> A              
     e( 45 - 45) =     -6.45357  eV     1   --> A              
     e( 46 - 46) =     -6.22545  eV     1   --> A              
     e( 47 - 47) =     -5.57367  eV     1   --> A              
     e( 48 - 48) =     -5.50151  eV     1   --> A              
     e( 49 - 49) =     -5.49983  eV     1   --> A              
     e( 50 - 50) =     -5.45319  eV     1   --> A              
     e( 51 - 51) =     -5.44787  eV     1   --> A              
     e( 52 - 52) =     -5.37465  eV     1   --> A              
     e( 53 - 53) =     -5.37291  eV     1   --> A              
     e( 54 - 54) =     -5.33989  eV     1   --> A              
     e( 55 - 55) =     -4.94245  eV     1   --> A              
     e( 56 - 56) =     -4.94223  eV     1   --> A              
     e( 57 - 58) =     -4.93721  eV     2   -->   2 A              
     e( 59 - 59) =     -4.88244  eV     1   --> A              
     e( 60 - 60) =     -4.88221  eV     1   --> A              
     e( 61 - 61) =     -4.87209  eV     1   --> A              
     e( 62 - 62) =     -4.76984  eV     1   --> A              
     e( 63 - 63) =     -4.39457  eV     1   --> A              
     e( 64 - 64) =     -4.38951  eV     1   --> A              
     e( 65 - 65) =     -4.09303  eV     1   --> A              
     e( 66 - 66) =     -4.07331  eV     1   --> A              
     e( 67 - 67) =     -4.06997  eV     1   --> A              
     e( 68 - 68) =     -3.95550  eV     1   --> A              
     e( 69 - 69) =     -3.92445  eV     1   --> A              
     e( 70 - 70) =     -3.92354  eV     1   --> A              
     e( 71 - 71) =     -3.88312  eV     1   --> A              
     e( 72 - 72) =     -3.88203  eV     1   --> A              
     e( 73 - 73) =     -3.81948  eV     1   --> A              
     e( 74 - 74) =     -3.81890  eV     1   --> A              
     e( 75 - 75) =     -3.73367  eV     1   --> A              
     e( 76 - 76) =     -3.73334  eV     1   --> A              
     e( 77 - 77) =     -3.37816  eV     1   --> A              
     e( 78 - 78) =     -3.31918  eV     1   --> A              
     e( 79 - 79) =     -3.29756  eV     1   --> A              
     e( 80 - 80) =     -3.29198  eV     1   --> A              
     e( 81 - 81) =     -3.12399  eV     1   --> A              
     e( 82 - 82) =     -2.96647  eV     1   --> A              
     e( 83 - 83) =     -2.95992  eV     1   --> A              
     e( 84 - 84) =     -2.95876  eV     1   --> A              
     e( 85 - 85) =     -2.95150  eV     1   --> A              
     e( 86 - 86) =     -2.79559  eV     1   --> A              
     e( 87 - 87) =     -2.71249  eV     1   --> A              
     e( 88 - 88) =     -2.62916  eV     1   --> A              
     e( 89 - 89) =     -2.62558  eV     1   --> A              
     e( 90 - 90) =     -2.50928  eV     1   --> A              
     e( 91 - 91) =     -2.50513  eV     1   --> A              
     e( 92 - 92) =     -2.02666  eV     1   --> A              
     e( 93 - 93) =     -1.97871  eV     1   --> A              
     e( 94 - 94) =     -1.97674  eV     1   --> A              
     e( 95 - 95) =     -1.95405  eV     1   --> A              
     e( 96 - 96) =     -1.91374  eV     1   --> A              
     e( 97 - 97) =     -1.89250  eV     1   --> A              
     e( 98 - 98) =     -1.86539  eV     1   --> A              
     e( 99 - 99) =     -1.85437  eV     1   --> A              
     e(100 -100) =     -1.81203  eV     1   --> A              
     e(101 -101) =     -0.26047  eV     1   --> A              
     e(102 -102) =     -0.11632  eV     1   --> A              
     e(103 -103) =     -0.07899  eV     1   --> A              
     e(104 -104) =     -0.03310  eV     1   --> A              
     e(105 -105) =      0.01089  eV     1   --> A              
     e(106 -106) =      0.57971  eV     1   --> A              
     e(107 -107) =      0.84493  eV     1   --> A              
     e(108 -108) =      0.84720  eV     1   --> A              
     e(109 -109) =      0.86806  eV     1   --> A              
     e(110 -110) =      0.97759  eV     1   --> A              
     e(111 -111) =      1.00381  eV     1   --> A              
     e(112 -112) =      1.01734  eV     1   --> A              
     e(113 -113) =      1.25904  eV     1   --> A              
     e(114 -114) =      1.27837  eV     1   --> A              
     e(115 -115) =      1.28734  eV     1   --> A              
     e(116 -116) =      1.37820  eV     1   --> A              
     e(117 -117) =      1.41668  eV     1   --> A              
     e(118 -118) =      1.51785  eV     1   --> A              
     e(119 -119) =      2.08508  eV     1   --> A              
     e(120 -120) =      2.08691  eV     1   --> A              

 **************************************************************************

 **************************************************************************

                    xk=(   0.05000,   0.57735,   0.00000  )

     Band symmetry, C_1 (1)     point group:

     e(  1 -  1) =    -15.40045  eV     1   --> A              
     e(  2 -  2) =    -15.39601  eV     1   --> A              
     e(  3 -  3) =    -14.96040  eV     1   --> A              
     e(  4 -  4) =    -14.80850  eV     1   --> A              
     e(  5 -  6) =    -13.98300  eV     2   -->   2 A              
     e(  7 -  8) =    -13.84583  eV     2   -->   2 A              
     e(  9 -  9) =    -13.48702  eV     1   --> A              
     e( 10 - 10) =    -13.48136  eV     1   --> A              
     e( 11 - 11) =    -12.85735  eV     1   --> A              
     e( 12 - 12) =    -12.85263  eV     1   --> A              
     e( 13 - 13) =    -12.69001  eV     1   --> A              
     e( 14 - 14) =    -12.68521  eV     1   --> A              
     e( 15 - 15) =    -12.21711  eV     1   --> A              
     e( 16 - 16) =    -12.15191  eV     1   --> A              
     e( 17 - 17) =    -11.79942  eV     1   --> A              
     e( 18 - 18) =    -11.79742  eV     1   --> A              
     e( 19 - 19) =    -11.31051  eV     1   --> A              
     e( 20 - 20) =    -11.14276  eV     1   --> A              
     e( 21 - 21) =    -10.27054  eV     1   --> A              
     e( 22 - 22) =    -10.26970  eV     1   --> A              
     e( 23 - 23) =    -10.15735  eV     1   --> A              
     e( 24 - 24) =    -10.15677  eV     1   --> A              
     e( 25 - 25) =    -10.12609  eV     1   --> A              
     e( 26 - 26) =     -9.26677  eV     1   --> A              
     e( 27 - 27) =     -9.26252  eV     1   --> A              
     e( 28 - 28) =     -9.17461  eV     1   --> A              
     e( 29 - 29) =     -9.10293  eV     1   --> A              
     e( 30 - 30) =     -9.10114  eV     1   --> A              
     e( 31 - 31) =     -9.09597  eV     1   --> A              
     e( 32 - 32) =     -8.47287  eV     1   --> A              
     e( 33 - 33) =     -8.47147  eV     1   --> A              
     e( 34 - 34) =     -8.30792  eV     1   --> A              
     e( 35 - 35) =     -8.12268  eV     1   --> A              
     e( 36 - 36) =     -8.12188  eV     1   --> A              
     e( 37 - 37) =     -7.94631  eV     1   --> A              
     e( 38 - 38) =     -7.94552  eV     1   --> A              
     e( 39 - 40) =     -7.55697  eV     2   -->   2 A              
     e( 41 - 42) =     -7.26155  eV     2   -->   2 A              
     e( 43 - 43) =     -7.16925  eV     1   --> A              
     e( 44 - 44) =     -6.91849  eV     1   --> A              
     e( 45 - 45) =     -6.51048  eV     1   --> A              
     e( 46 - 46) =     -6.16858  eV     1   --> A              
     e( 47 - 47) =     -5.63172  eV     1   --> A              
     e( 48 - 48) =     -5.53276  eV     1   --> A              
     e( 49 - 49) =     -5.53108  eV     1   --> A              
     e( 50 - 50) =     -5.45196  eV     1   --> A              
     e( 51 - 51) =     -5.44668  eV     1   --> A              
     e( 52 - 52) =     -5.34310  eV     1   --> A              
     e( 53 - 53) =     -5.34136  eV     1   --> A              
     e( 54 - 54) =     -5.28186  eV     1   --> A              
     e( 55 - 55) =     -4.94298  eV     1   --> A              
     e( 56 - 56) =     -4.94274  eV     1   --> A              
     e( 57 - 58) =     -4.93433  eV     2   -->   2 A              
     e( 59 - 59) =     -4.89652  eV     1   --> A              
     e( 60 - 60) =     -4.88470  eV     1   --> A              
     e( 61 - 61) =     -4.88419  eV     1   --> A              
     e( 62 - 62) =     -4.74281  eV     1   --> A              
     e( 63 - 63) =     -4.40007  eV     1   --> A              
     e( 64 - 64) =     -4.39501  eV     1   --> A              
     e( 65 - 65) =     -4.12724  eV     1   --> A              
     e( 66 - 66) =     -4.07606  eV     1   --> A              
     e( 67 - 67) =     -4.07274  eV     1   --> A              
     e( 68 - 68) =     -3.93481  eV     1   --> A              
     e( 69 - 69) =     -3.93394  eV     1   --> A              
     e( 70 - 70) =     -3.92317  eV     1   --> A              
     e( 71 - 71) =     -3.87167  eV     1   --> A              
     e( 72 - 72) =     -3.87057  eV     1   --> A              
     e( 73 - 73) =     -3.83773  eV     1   --> A              
     e( 74 - 74) =     -3.83704  eV     1   --> A              
     e( 75 - 75) =     -3.71058  eV     1   --> A              
     e( 76 - 76) =     -3.71028  eV     1   --> A              
     e( 77 - 77) =     -3.37696  eV     1   --> A              
     e( 78 - 78) =     -3.31807  eV     1   --> A              
     e( 79 - 79) =     -3.30011  eV     1   --> A              
     e( 80 - 80) =     -3.29456  eV     1   --> A              
     e( 81 - 81) =     -3.16333  eV     1   --> A              
     e( 82 - 82) =     -2.96282  eV     1   --> A              
     e( 83 - 83) =     -2.96015  eV     1   --> A              
     e( 84 - 84) =     -2.95891  eV     1   --> A              
     e( 85 - 85) =     -2.92740  eV     1   --> A              
     e( 86 - 86) =     -2.81447  eV     1   --> A              
     e( 87 - 87) =     -2.69006  eV     1   --> A              
     e( 88 - 88) =     -2.66074  eV     1   --> A              
     e( 89 - 89) =     -2.65711  eV     1   --> A              
     e( 90 - 90) =     -2.48112  eV     1   --> A              
     e( 91 - 91) =     -2.47673  eV     1   --> A              
     e( 92 - 92) =     -2.02138  eV     1   --> A              
     e( 93 - 93) =     -1.98459  eV     1   --> A              
     e( 94 - 94) =     -1.98257  eV     1   --> A              
     e( 95 - 95) =     -1.96951  eV     1   --> A              
     e( 96 - 96) =     -1.92939  eV     1   --> A              
     e( 97 - 97) =     -1.87904  eV     1   --> A              
     e( 98 - 98) =     -1.87823  eV     1   --> A              
     e( 99 - 99) =     -1.84095  eV     1   --> A              
     e(100 -100) =     -1.80008  eV     1   --> A              
     e(101 -101) =     -0.26101  eV     1   --> A              
     e(102 -102) =     -0.13590  eV     1   --> A              
     e(103 -103) =     -0.09968  eV     1   --> A              
     e(104 -104) =     -0.01282  eV     1   --> A              
     e(105 -105) =      0.03346  eV     1   --> A              
     e(106 -106) =      0.59115  eV     1   --> A              
     e(107 -107) =      0.83942  eV     1   --> A              
     e(108 -108) =      0.85552  eV     1   --> A              
     e(109 -109) =      0.85772  eV     1   --> A              
     e(110 -110) =      0.98968  eV     1   --> A              
     e(111 -111) =      1.01582  eV     1   --> A              
     e(112 -112) =      1.01958  eV     1   --> A              
     e(113 -113) =      1.23315  eV     1   --> A              
     e(114 -114) =      1.27891  eV     1   --> A              
     e(115 -115) =      1.28792  eV     1   --> A              
     e(116 -116) =      1.39120  eV     1   --> A              
     e(117 -117) =      1.41219  eV     1   --> A              
     e(118 -118) =      1.54370  eV     1   --> A              
     e(119 -119) =      2.04819  eV     1   --> A              
     e(120 -120) =      2.08583  eV     1   --> A              

 **************************************************************************

 **************************************************************************

                    xk=(   0.06667,   0.57735,   0.00000  )

     Band symmetry, C_1 (1)     point group:

     e(  1 -  1) =    -15.39890  eV     1   --> A              
     e(  2 -  2) =    -15.39446  eV     1   --> A              
     e(  3 -  3) =    -14.98442  eV     1   --> A              
     e(  4 -  4) =    -14.78205  eV     1   --> A              
     e(  5 -  6) =    -14.00484  eV     2   -->   2 A              
     e(  7 -  8) =    -13.82197  eV     2   -->   2 A              
     e(  9 -  9) =    -13.48572  eV     1   --> A              
     e( 10 - 10) =    -13.48006  eV     1   --> A              
     e( 11 - 11) =    -12.88746  eV     1   --> A              
     e( 12 - 12) =    -12.88275  eV     1   --> A              
     e( 13 - 13) =    -12.66479  eV     1   --> A              
     e( 14 - 14) =    -12.65997  eV     1   --> A              
     e( 15 - 15) =    -12.22856  eV     1   --> A              
     e( 16 - 16) =    -12.14192  eV     1   --> A              
     e( 17 - 17) =    -11.79772  eV     1   --> A              
     e( 18 - 18) =    -11.79572  eV     1   --> A              
     e( 19 - 19) =    -11.33699  eV     1   --> A              
     e( 20 - 20) =    -11.11341  eV     1   --> A              
     e( 21 - 21) =    -10.29031  eV     1   --> A              
     e( 22 - 22) =    -10.28944  eV     1   --> A              
     e( 23 - 23) =    -10.14010  eV     1   --> A              
     e( 24 - 24) =    -10.13956  eV     1   --> A              
     e( 25 - 25) =    -10.12416  eV     1   --> A              
     e( 26 - 26) =     -9.28913  eV     1   --> A              
     e( 27 - 27) =     -9.28490  eV     1   --> A              
     e( 28 - 28) =     -9.18841  eV     1   --> A              
     e( 29 - 29) =     -9.08714  eV     1   --> A              
     e( 30 - 30) =     -9.07199  eV     1   --> A              
     e( 31 - 31) =     -9.06719  eV     1   --> A              
     e( 32 - 32) =     -8.47198  eV     1   --> A              
     e( 33 - 33) =     -8.47058  eV     1   --> A              
     e( 34 - 34) =     -8.30885  eV     1   --> A              
     e( 35 - 35) =     -8.14978  eV     1   --> A              
     e( 36 - 36) =     -8.14899  eV     1   --> A              
     e( 37 - 37) =     -7.91545  eV     1   --> A              
     e( 38 - 38) =     -7.91466  eV     1   --> A              
     e( 39 - 40) =     -7.60787  eV     2   -->   2 A              
     e( 41 - 42) =     -7.21412  eV     2   -->   2 A              
     e( 43 - 43) =     -7.20608  eV     1   --> A              
     e( 44 - 44) =     -6.87235  eV     1   --> A              
     e( 45 - 45) =     -6.56731  eV     1   --> A              
     e( 46 - 46) =     -6.11181  eV     1   --> A              
     e( 47 - 47) =     -5.68920  eV     1   --> A              
     e( 48 - 48) =     -5.56394  eV     1   --> A              
     e( 49 - 49) =     -5.56226  eV     1   --> A              
     e( 50 - 50) =     -5.45098  eV     1   --> A              
     e( 51 - 51) =     -5.44571  eV     1   --> A              
     e( 52 - 52) =     -5.31122  eV     1   --> A              
     e( 53 - 53) =     -5.30948  eV     1   --> A              
     e( 54 - 54) =     -5.22384  eV     1   --> A              
     e( 55 - 55) =     -4.94308  eV     1   --> A              
     e( 56 - 56) =     -4.94272  eV     1   --> A              
     e( 57 - 58) =     -4.93068  eV     2   -->   2 A              
     e( 59 - 59) =     -4.92004  eV     1   --> A              
     e( 60 - 60) =     -4.88802  eV     1   --> A              
     e( 61 - 61) =     -4.88752  eV     1   --> A              
     e( 62 - 62) =     -4.71670  eV     1   --> A              
     e( 63 - 63) =     -4.40728  eV     1   --> A              
     e( 64 - 64) =     -4.40222  eV     1   --> A              
     e( 65 - 65) =     -4.16237  eV     1   --> A              
     e( 66 - 66) =     -4.07992  eV     1   --> A              
     e( 67 - 67) =     -4.07663  eV     1   --> A              
     e( 68 - 68) =     -3.94593  eV     1   --> A              
     e( 69 - 69) =     -3.94522  eV     1   --> A              
     e( 70 - 70) =     -3.89142  eV     1   --> A              
     e( 71 - 71) =     -3.85950  eV     1   --> A              
     e( 72 - 72) =     -3.85840  eV     1   --> A              
     e( 73 - 73) =     -3.85395  eV     1   --> A              
     e( 74 - 74) =     -3.85312  eV     1   --> A              
     e( 75 - 75) =     -3.68631  eV     1   --> A              
     e( 76 - 76) =     -3.68604  eV     1   --> A              
     e( 77 - 77) =     -3.37531  eV     1   --> A              
     e( 78 - 78) =     -3.31656  eV     1   --> A              
     e( 79 - 79) =     -3.30418  eV     1   --> A              
     e( 80 - 80) =     -3.29867  eV     1   --> A              
     e( 81 - 81) =     -3.20258  eV     1   --> A              
     e( 82 - 82) =     -2.97817  eV     1   --> A              
     e( 83 - 83) =     -2.96047  eV     1   --> A              
     e( 84 - 84) =     -2.95926  eV     1   --> A              
     e( 85 - 85) =     -2.88926  eV     1   --> A              
     e( 86 - 86) =     -2.83223  eV     1   --> A              
     e( 87 - 87) =     -2.69376  eV     1   --> A              
     e( 88 - 88) =     -2.68971  eV     1   --> A              
     e( 89 - 89) =     -2.66712  eV     1   --> A              
     e( 90 - 90) =     -2.45395  eV     1   --> A              
     e( 91 - 91) =     -2.44928  eV     1   --> A              
     e( 92 - 92) =     -2.01462  eV     1   --> A              
     e( 93 - 93) =     -1.99272  eV     1   --> A              
     e( 94 - 94) =     -1.99059  eV     1   --> A              
     e( 95 - 95) =     -1.98463  eV     1   --> A              
     e( 96 - 96) =     -1.94530  eV     1   --> A              
     e( 97 - 97) =     -1.89282  eV     1   --> A              
     e( 98 - 98) =     -1.86467  eV     1   --> A              
     e( 99 - 99) =     -1.82810  eV     1   --> A              
     e(100 -100) =     -1.78882  eV     1   --> A              
     e(101 -101) =     -0.26181  eV     1   --> A              
     e(102 -102) =     -0.15498  eV     1   --> A              
     e(103 -103) =     -0.12011  eV     1   --> A              
     e(104 -104) =      0.00771  eV     1   --> A              
     e(105 -105) =      0.05607  eV     1   --> A              
     e(106 -106) =      0.60707  eV     1   --> A              
     e(107 -107) =      0.81091  eV     1   --> A              
     e(108 -108) =      0.87000  eV     1   --> A              
     e(109 -109) =      0.87221  eV     1   --> A              
     e(110 -110) =      0.98870  eV     1   --> A              
     e(111 -111) =      1.02160  eV     1   --> A              
     e(112 -112) =      1.03995  eV     1   --> A              
     e(113 -113) =      1.20890  eV     1   --> A              
     e(114 -114) =      1.27969  eV     1   --> A              
     e(115 -115) =      1.28874  eV     1   --> A              
     e(116 -116) =      1.36782  eV     1   --> A              
     e(117 -117) =      1.44543  eV     1   --> A              
     e(118 -118) =      1.56957  eV     1   --> A              
     e(119 -119) =      2.01058  eV     1   --> A              
     e(120 -120) =      2.06966  eV     1   --> A              

 **************************************************************************

 **************************************************************************

                    xk=(   0.08333,   0.57735,   0.00000  )

     Band symmetry, C_1 (1)     point group:

     e(  1 -  1) =    -15.39688  eV     1   --> A              
     e(  2 -  2) =    -15.39244  eV     1   --> A              
     e(  3 -  3) =    -15.00791  eV     1   --> A              
     e(  4 -  4) =    -14.75505  eV     1   --> A              
     e(  5 -  6) =    -14.02641  eV     2   -->   2 A              
     e(  7 -  8) =    -13.79782  eV     2   -->   2 A              
     e(  9 -  9) =    -13.48411  eV     1   --> A              
     e( 10 - 10) =    -13.47845  eV     1   --> A              
     e( 11 - 11) =    -12.91806  eV     1   --> A              
     e( 12 - 12) =    -12.91336  eV     1   --> A              
     e( 13 - 13) =    -12.64045  eV     1   --> A              
     e( 14 - 14) =    -12.63562  eV     1   --> A              
     e( 15 - 15) =    -12.24010  eV     1   --> A              
     e( 16 - 16) =    -12.13218  eV     1   --> A              
     e( 17 - 17) =    -11.79551  eV     1   --> A              
     e( 18 - 18) =    -11.79351  eV     1   --> A              
     e( 19 - 19) =    -11.36320  eV     1   --> A              
     e( 20 - 20) =    -11.08363  eV     1   --> A              
     e( 21 - 21) =    -10.31017  eV     1   --> A              
     e( 22 - 22) =    -10.30927  eV     1   --> A              
     e( 23 - 23) =    -10.12365  eV     1   --> A              
     e( 24 - 24) =    -10.12297  eV     1   --> A              
     e( 25 - 25) =    -10.12140  eV     1   --> A              
     e( 26 - 26) =     -9.30972  eV     1   --> A              
     e( 27 - 27) =     -9.30551  eV     1   --> A              
     e( 28 - 28) =     -9.20239  eV     1   --> A              
     e( 29 - 29) =     -9.07629  eV     1   --> A              
     e( 30 - 30) =     -9.03899  eV     1   --> A              
     e( 31 - 31) =     -9.03435  eV     1   --> A              
     e( 32 - 32) =     -8.47084  eV     1   --> A              
     e( 33 - 33) =     -8.46943  eV     1   --> A              
     e( 34 - 34) =     -8.31011  eV     1   --> A              
     e( 35 - 35) =     -8.17591  eV     1   --> A              
     e( 36 - 36) =     -8.17514  eV     1   --> A              
     e( 37 - 37) =     -7.88442  eV     1   --> A              
     e( 38 - 38) =     -7.88363  eV     1   --> A              
     e( 39 - 40) =     -7.65886  eV     2   -->   2 A              
     e( 41 - 41) =     -7.24081  eV     1   --> A              
     e( 42 - 43) =     -7.16784  eV     2   -->   2 A              
     e( 44 - 44) =     -6.82517  eV     1   --> A              
     e( 45 - 45) =     -6.62386  eV     1   --> A              
     e( 46 - 46) =     -6.05532  eV     1   --> A              
     e( 47 - 47) =     -5.74794  eV     1   --> A              
     e( 48 - 48) =     -5.59474  eV     1   --> A              
     e( 49 - 49) =     -5.59307  eV     1   --> A              
     e( 50 - 50) =     -5.44957  eV     1   --> A              
     e( 51 - 51) =     -5.44432  eV     1   --> A              
     e( 52 - 52) =     -5.27917  eV     1   --> A              
     e( 53 - 53) =     -5.27743  eV     1   --> A              
     e( 54 - 54) =     -5.16530  eV     1   --> A              
     e( 55 - 55) =     -4.94535  eV     1   --> A              
     e( 56 - 56) =     -4.94116  eV     1   --> A              
     e( 57 - 57) =     -4.93968  eV     1   --> A              
     e( 58 - 59) =     -4.92623  eV     2   -->   2 A              
     e( 60 - 60) =     -4.89212  eV     1   --> A              
     e( 61 - 61) =     -4.89162  eV     1   --> A              
     e( 62 - 62) =     -4.68874  eV     1   --> A              
     e( 63 - 63) =     -4.41871  eV     1   --> A              
     e( 64 - 64) =     -4.41365  eV     1   --> A              
     e( 65 - 65) =     -4.19806  eV     1   --> A              
     e( 66 - 66) =     -4.08472  eV     1   --> A              
     e( 67 - 67) =     -4.08149  eV     1   --> A              
     e( 68 - 68) =     -3.95875  eV     1   --> A              
     e( 69 - 69) =     -3.95818  eV     1   --> A              
     e( 70 - 70) =     -3.86779  eV     1   --> A              
     e( 71 - 71) =     -3.86678  eV     1   --> A              
     e( 72 - 72) =     -3.86004  eV     1   --> A              
     e( 73 - 73) =     -3.84664  eV     1   --> A              
     e( 74 - 74) =     -3.84552  eV     1   --> A              
     e( 75 - 75) =     -3.66145  eV     1   --> A              
     e( 76 - 76) =     -3.66119  eV     1   --> A              
     e( 77 - 77) =     -3.37277  eV     1   --> A              
     e( 78 - 78) =     -3.31421  eV     1   --> A              
     e( 79 - 79) =     -3.30711  eV     1   --> A              
     e( 80 - 80) =     -3.30165  eV     1   --> A              
     e( 81 - 81) =     -3.24171  eV     1   --> A              
     e( 82 - 82) =     -2.99737  eV     1   --> A              
     e( 83 - 83) =     -2.96088  eV     1   --> A              
     e( 84 - 84) =     -2.95966  eV     1   --> A              
     e( 85 - 85) =     -2.85867  eV     1   --> A              
     e( 86 - 86) =     -2.84282  eV     1   --> A              
     e( 87 - 87) =     -2.72599  eV     1   --> A              
     e( 88 - 88) =     -2.72046  eV     1   --> A              
     e( 89 - 89) =     -2.64353  eV     1   --> A              
     e( 90 - 90) =     -2.42762  eV     1   --> A              
     e( 91 - 91) =     -2.42264  eV     1   --> A              
     e( 92 - 92) =     -2.01031  eV     1   --> A              
     e( 93 - 93) =     -2.00237  eV     1   --> A              
     e( 94 - 94) =     -2.00061  eV     1   --> A              
     e( 95 - 95) =     -1.99634  eV     1   --> A              
     e( 96 - 96) =     -1.96142  eV     1   --> A              
     e( 97 - 97) =     -1.90678  eV     1   --> A              
     e( 98 - 98) =     -1.85138  eV     1   --> A              
     e( 99 - 99) =     -1.81595  eV     1   --> A              
     e(100 -100) =     -1.77791  eV     1   --> A              
     e(101 -101) =     -0.26287  eV     1   --> A              
     e(102 -102) =     -0.17334  eV     1   --> A              
     e(103 -103) =     -0.13985  eV     1   --> A              
     e(104 -104) =      0.02816  eV     1   --> A              
     e(105 -105) =      0.07866  eV     1   --> A              
     e(106 -106) =      0.62737  eV     1   --> A              
     e(107 -107) =      0.78250  eV     1   --> A              
     e(108 -108) =      0.88836  eV     1   --> A              
     e(109 -109) =      0.89057  eV     1   --> A              
     e(110 -110) =      0.98541  eV     1   --> A              
     e(111 -111) =      1.02329  eV     1   --> A              
     e(112 -112) =      1.06559  eV     1   --> A              
     e(113 -113) =      1.18652  eV     1   --> A              
     e(114 -114) =      1.28065  eV     1   --> A              
     e(115 -115) =      1.28976  eV     1   --> A              
     e(116 -116) =      1.34458  eV     1   --> A              
     e(117 -117) =      1.48050  eV     1   --> A              
     e(118 -118) =      1.59586  eV     1   --> A              
     e(119 -119) =      1.97289  eV     1   --> A              
     e(120 -120) =      2.02729  eV     1   --> A              

 **************************************************************************

 **************************************************************************

                    xk=(   0.10000,   0.57735,   0.00000  )

     Band symmetry, C_1 (1)     point group:

     e(  1 -  1) =    -15.39447  eV     1   --> A              
     e(  2 -  2) =    -15.39004  eV     1   --> A              
     e(  3 -  3) =    -15.03114  eV     1   --> A              
     e(  4 -  4) =    -14.72764  eV     1   --> A              
     e(  5 -  6) =    -14.04756  eV     2   -->   2 A              
     e(  7 -  8) =    -13.77338  eV     2   -->   2 A              
     e(  9 -  9) =    -13.48203  eV     1   --> A              
     e( 10 - 10) =    -13.47637  eV     1   --> A              
     e( 11 - 11) =    -12.94919  eV     1   --> A              
     e( 12 - 12) =    -12.94449  eV     1   --> A              
     e( 13 - 13) =    -12.61712  eV     1   --> A              
     e( 14 - 14) =    -12.61227  eV     1   --> A              
     e( 15 - 15) =    -12.25158  eV     1   --> A              
     e( 16 - 16) =    -12.12277  eV     1   --> A              
     e( 17 - 17) =    -11.79280  eV     1   --> A              
     e( 18 - 18) =    -11.79080  eV     1   --> A              
     e( 19 - 19) =    -11.38892  eV     1   --> A              
     e( 20 - 20) =    -11.05345  eV     1   --> A              
     e( 21 - 21) =    -10.33008  eV     1   --> A              
     e( 22 - 22) =    -10.32915  eV     1   --> A              
     e( 23 - 23) =    -10.11885  eV     1   --> A              
     e( 24 - 24) =    -10.10737  eV     1   --> A              
     e( 25 - 25) =    -10.10698  eV     1   --> A              
     e( 26 - 26) =     -9.32926  eV     1   --> A              
     e( 27 - 27) =     -9.32507  eV     1   --> A              
     e( 28 - 28) =     -9.21603  eV     1   --> A              
     e( 29 - 29) =     -9.06565  eV     1   --> A              
     e( 30 - 30) =     -9.00498  eV     1   --> A              
     e( 31 - 31) =     -9.00039  eV     1   --> A              
     e( 32 - 32) =     -8.46955  eV     1   --> A              
     e( 33 - 33) =     -8.46813  eV     1   --> A              
     e( 34 - 34) =     -8.31165  eV     1   --> A              
     e( 35 - 35) =     -8.20090  eV     1   --> A              
     e( 36 - 36) =     -8.20015  eV     1   --> A              
     e( 37 - 37) =     -7.85327  eV     1   --> A              
     e( 38 - 38) =     -7.85249  eV     1   --> A              
     e( 39 - 40) =     -7.71017  eV     2   -->   2 A              
     e( 41 - 41) =     -7.27320  eV     1   --> A              
     e( 42 - 43) =     -7.12211  eV     2   -->   2 A              
     e( 44 - 44) =     -6.77605  eV     1   --> A              
     e( 45 - 45) =     -6.68026  eV     1   --> A              
     e( 46 - 46) =     -5.99919  eV     1   --> A              
     e( 47 - 47) =     -5.80584  eV     1   --> A              
     e( 48 - 48) =     -5.62572  eV     1   --> A              
     e( 49 - 49) =     -5.62405  eV     1   --> A              
     e( 50 - 50) =     -5.44809  eV     1   --> A              
     e( 51 - 51) =     -5.44285  eV     1   --> A              
     e( 52 - 52) =     -5.24730  eV     1   --> A              
     e( 53 - 53) =     -5.24556  eV     1   --> A              
     e( 54 - 54) =     -5.10807  eV     1   --> A              
     e( 55 - 55) =     -4.96661  eV     1   --> A              
     e( 56 - 56) =     -4.93773  eV     1   --> A              
     e( 57 - 57) =     -4.93757  eV     1   --> A              
     e( 58 - 59) =     -4.92071  eV     2   -->   2 A              
     e( 60 - 60) =     -4.89701  eV     1   --> A              
     e( 61 - 61) =     -4.89650  eV     1   --> A              
     e( 62 - 62) =     -4.66033  eV     1   --> A              
     e( 63 - 63) =     -4.43079  eV     1   --> A              
     e( 64 - 64) =     -4.42573  eV     1   --> A              
     e( 65 - 65) =     -4.23387  eV     1   --> A              
     e( 66 - 66) =     -4.09087  eV     1   --> A              
     e( 67 - 67) =     -4.08770  eV     1   --> A              
     e( 68 - 68) =     -3.97267  eV     1   --> A              
     e( 69 - 69) =     -3.97223  eV     1   --> A              
     e( 70 - 70) =     -3.87798  eV     1   --> A              
     e( 71 - 71) =     -3.87684  eV     1   --> A              
     e( 72 - 72) =     -3.83309  eV     1   --> A              
     e( 73 - 73) =     -3.83198  eV     1   --> A              
     e( 74 - 74) =     -3.83027  eV     1   --> A              
     e( 75 - 75) =     -3.63645  eV     1   --> A              
     e( 76 - 76) =     -3.63621  eV     1   --> A              
     e( 77 - 77) =     -3.37074  eV     1   --> A              
     e( 78 - 78) =     -3.31252  eV     1   --> A              
     e( 79 - 79) =     -3.31208  eV     1   --> A              
     e( 80 - 80) =     -3.30669  eV     1   --> A              
     e( 81 - 81) =     -3.28066  eV     1   --> A              
     e( 82 - 82) =     -3.02002  eV     1   --> A              
     e( 83 - 83) =     -2.96139  eV     1   --> A              
     e( 84 - 84) =     -2.96016  eV     1   --> A              
     e( 85 - 85) =     -2.86883  eV     1   --> A              
     e( 86 - 86) =     -2.81659  eV     1   --> A              
     e( 87 - 87) =     -2.75855  eV     1   --> A              
     e( 88 - 88) =     -2.74673  eV     1   --> A              
     e( 89 - 89) =     -2.61941  eV     1   --> A              
     e( 90 - 90) =     -2.40253  eV     1   --> A              
     e( 91 - 91) =     -2.39717  eV     1   --> A              
     e( 92 - 92) =     -2.02043  eV     1   --> A              
     e( 93 - 93) =     -2.01400  eV     1   --> A              
     e( 94 - 94) =     -2.01269  eV     1   --> A              
     e( 95 - 95) =     -1.99165  eV     1   --> A              
     e( 96 - 96) =     -1.97752  eV     1   --> A              
     e( 97 - 97) =     -1.92003  eV     1   --> A              
     e( 98 - 98) =     -1.83825  eV     1   --> A              
     e( 99 - 99) =     -1.80461  eV     1   --> A              
     e(100 -100) =     -1.76716  eV     1   --> A              
     e(101 -101) =     -0.26428  eV     1   --> A              
     e(102 -102) =     -0.19088  eV     1   --> A              
     e(103 -103) =     -0.15879  eV     1   --> A              
     e(104 -104) =      0.04842  eV     1   --> A              
     e(105 -105) =      0.10112  eV     1   --> A              
     e(106 -106) =      0.65194  eV     1   --> A              
     e(107 -107) =      0.75425  eV     1   --> A              
     e(108 -108) =      0.91033  eV     1   --> A              
     e(109 -109) =      0.91251  eV     1   --> A              
     e(110 -110) =      0.98157  eV     1   --> A              
     e(111 -111) =      1.02453  eV     1   --> A              
     e(112 -112) =      1.09073  eV     1   --> A              
     e(113 -113) =      1.16615  eV     1   --> A              
     e(114 -114) =      1.28176  eV     1   --> A              
     e(115 -115) =      1.29098  eV     1   --> A              
     e(116 -116) =      1.32197  eV     1   --> A              
     e(117 -117) =      1.51648  eV     1   --> A              
     e(118 -118) =      1.62222  eV     1   --> A              
     e(119 -119) =      1.93525  eV     1   --> A              
     e(120 -120) =      1.98368  eV     1   --> A              

 **************************************************************************

 **************************************************************************

                    xk=(   0.11667,   0.57735,   0.00000  )

     Band symmetry, C_1 (1)     point group:

     e(  1 -  1) =    -15.39172  eV     1   --> A              
     e(  2 -  2) =    -15.38728  eV     1   --> A              
     e(  3 -  3) =    -15.05392  eV     1   --> A              
     e(  4 -  4) =    -14.69991  eV     1   --> A              
     e(  5 -  6) =    -14.06847  eV     2   -->   2 A              
     e(  7 -  8) =    -13.74885  eV     2   -->   2 A              
     e(  9 -  9) =    -13.47949  eV     1   --> A              
     e( 10 - 10) =    -13.47383  eV     1   --> A              
     e( 11 - 11) =    -12.98074  eV     1   --> A              
     e( 12 - 12) =    -12.97605  eV     1   --> A              
     e( 13 - 13) =    -12.59480  eV     1   --> A              
     e( 14 - 14) =    -12.58994  eV     1   --> A              
     e( 15 - 15) =    -12.26328  eV     1   --> A              
     e( 16 - 16) =    -12.11387  eV     1   --> A              
     e( 17 - 17) =    -11.78966  eV     1   --> A              
     e( 18 - 18) =    -11.78766  eV     1   --> A              
     e( 19 - 19) =    -11.41426  eV     1   --> A              
     e( 20 - 20) =    -11.02312  eV     1   --> A              
     e( 21 - 21) =    -10.35003  eV     1   --> A              
     e( 22 - 22) =    -10.34907  eV     1   --> A              
     e( 23 - 23) =    -10.11517  eV     1   --> A              
     e( 24 - 24) =    -10.09228  eV     1   --> A              
     e( 25 - 25) =    -10.09194  eV     1   --> A              
     e( 26 - 26) =     -9.34669  eV     1   --> A              
     e( 27 - 27) =     -9.34253  eV     1   --> A              
     e( 28 - 28) =     -9.23037  eV     1   --> A              
     e( 29 - 29) =     -9.05670  eV     1   --> A              
     e( 30 - 30) =     -8.96990  eV     1   --> A              
     e( 31 - 31) =     -8.96532  eV     1   --> A              
     e( 32 - 32) =     -8.46789  eV     1   --> A              
     e( 33 - 33) =     -8.46645  eV     1   --> A              
     e( 34 - 34) =     -8.31339  eV     1   --> A              
     e( 35 - 35) =     -8.22468  eV     1   --> A              
     e( 36 - 36) =     -8.22394  eV     1   --> A              
     e( 37 - 37) =     -7.82212  eV     1   --> A              
     e( 38 - 38) =     -7.82135  eV     1   --> A              
     e( 39 - 40) =     -7.76069  eV     2   -->   2 A              
     e( 41 - 41) =     -7.30466  eV     1   --> A              
     e( 42 - 43) =     -7.07802  eV     2   -->   2 A              
     e( 44 - 44) =     -6.73667  eV     1   --> A              
     e( 45 - 45) =     -6.72779  eV     1   --> A              
     e( 46 - 46) =     -5.94361  eV     1   --> A              
     e( 47 - 47) =     -5.86439  eV     1   --> A              
     e( 48 - 48) =     -5.65638  eV     1   --> A              
     e( 49 - 49) =     -5.65472  eV     1   --> A              
     e( 50 - 50) =     -5.44640  eV     1   --> A              
     e( 51 - 51) =     -5.44118  eV     1   --> A              
     e( 52 - 52) =     -5.21489  eV     1   --> A              
     e( 53 - 53) =     -5.21314  eV     1   --> A              
     e( 54 - 54) =     -5.05120  eV     1   --> A              
     e( 55 - 55) =     -4.98788  eV     1   --> A              
     e( 56 - 57) =     -4.93407  eV     2   -->   2 A              
     e( 58 - 59) =     -4.91580  eV     2   -->   2 A              
     e( 60 - 60) =     -4.90221  eV     1   --> A              
     e( 61 - 61) =     -4.90169  eV     1   --> A              
     e( 62 - 62) =     -4.63147  eV     1   --> A              
     e( 63 - 63) =     -4.44534  eV     1   --> A              
     e( 64 - 64) =     -4.44028  eV     1   --> A              
     e( 65 - 65) =     -4.27040  eV     1   --> A              
     e( 66 - 66) =     -4.09917  eV     1   --> A              
     e( 67 - 67) =     -4.09607  eV     1   --> A              
     e( 68 - 68) =     -3.98815  eV     1   --> A              
     e( 69 - 69) =     -3.98783  eV     1   --> A              
     e( 70 - 70) =     -3.88518  eV     1   --> A              
     e( 71 - 71) =     -3.88391  eV     1   --> A              
     e( 72 - 72) =     -3.81883  eV     1   --> A              
     e( 73 - 73) =     -3.81773  eV     1   --> A              
     e( 74 - 74) =     -3.80060  eV     1   --> A              
     e( 75 - 75) =     -3.61118  eV     1   --> A              
     e( 76 - 76) =     -3.61096  eV     1   --> A              
     e( 77 - 77) =     -3.36813  eV     1   --> A              
     e( 78 - 78) =     -3.31958  eV     1   --> A              
     e( 79 - 79) =     -3.31846  eV     1   --> A              
     e( 80 - 80) =     -3.31317  eV     1   --> A              
     e( 81 - 81) =     -3.31033  eV     1   --> A              
     e( 82 - 82) =     -3.04568  eV     1   --> A              
     e( 83 - 83) =     -2.96200  eV     1   --> A              
     e( 84 - 84) =     -2.96076  eV     1   --> A              
     e( 85 - 85) =     -2.88421  eV     1   --> A              
     e( 86 - 86) =     -2.80976  eV     1   --> A              
     e( 87 - 87) =     -2.79209  eV     1   --> A              
     e( 88 - 88) =     -2.74838  eV     1   --> A              
     e( 89 - 89) =     -2.59481  eV     1   --> A              
     e( 90 - 90) =     -2.37837  eV     1   --> A              
     e( 91 - 91) =     -2.37256  eV     1   --> A              
     e( 92 - 92) =     -2.03567  eV     1   --> A              
     e( 93 - 93) =     -2.02784  eV     1   --> A              
     e( 94 - 94) =     -2.02644  eV     1   --> A              
     e( 95 - 95) =     -1.99400  eV     1   --> A              
     e( 96 - 96) =     -1.98074  eV     1   --> A              
     e( 97 - 97) =     -1.93389  eV     1   --> A              
     e( 98 - 98) =     -1.82651  eV     1   --> A              
     e( 99 - 99) =     -1.79420  eV     1   --> A              
     e(100 -100) =     -1.75783  eV     1   --> A              
     e(101 -101) =     -0.26606  eV     1   --> A              
     e(102 -102) =     -0.20744  eV     1   --> A              
     e(103 -103) =     -0.17686  eV     1   --> A              
     e(104 -104) =      0.06837  eV     1   --> A              
     e(105 -105) =      0.12336  eV     1   --> A              
     e(106 -106) =      0.68063  eV     1   --> A              
     e(107 -107) =      0.72623  eV     1   --> A              
     e(108 -108) =      0.93559  eV     1   --> A              
     e(109 -109) =      0.93776  eV     1   --> A              
     e(110 -110) =      0.97748  eV     1   --> A              
     e(111 -111) =      1.02486  eV     1   --> A              
     e(112 -112) =      1.11476  eV     1   --> A              
     e(113 -113) =      1.14822  eV     1   --> A              
     e(114 -114) =      1.28282  eV     1   --> A              
     e(115 -115) =      1.29238  eV     1   --> A              
     e(116 -116) =      1.30035  eV     1   --> A              
     e(117 -117) =      1.55285  eV     1   --> A              
     e(118 -118) =      1.64821  eV     1   --> A              
     e(119 -119) =      1.89750  eV     1   --> A              
     e(120 -120) =      1.93965  eV     1   --> A              

 **************************************************************************

 **************************************************************************

                    xk=(   0.13333,   0.57735,   0.00000  )

     Band symmetry, C_1 (1)     point group:

     e(  1 -  1) =    -15.38850  eV     1   --> A              
     e(  2 -  2) =    -15.38406  eV     1   --> A              
     e(  3 -  3) =    -15.07636  eV     1   --> A              
     e(  4 -  4) =    -14.67178  eV     1   --> A              
     e(  5 -  6) =    -14.08900  eV     2   -->   2 A              
     e(  7 -  8) =    -13.72403  eV     2   -->   2 A              
     e(  9 -  9) =    -13.47667  eV     1   --> A              
     e( 10 - 10) =    -13.47101  eV     1   --> A              
     e( 11 - 11) =    -13.01267  eV     1   --> A              
     e( 12 - 12) =    -13.00799  eV     1   --> A              
     e( 13 - 13) =    -12.57356  eV     1   --> A              
     e( 14 - 14) =    -12.56868  eV     1   --> A              
     e( 15 - 15) =    -12.27498  eV     1   --> A              
     e( 16 - 16) =    -12.10523  eV     1   --> A              
     e( 17 - 17) =    -11.78601  eV     1   --> A              
     e( 18 - 18) =    -11.78401  eV     1   --> A              
     e( 19 - 19) =    -11.43917  eV     1   --> A              
     e( 20 - 20) =    -10.99225  eV     1   --> A              
     e( 21 - 21) =    -10.36988  eV     1   --> A              
     e( 22 - 22) =    -10.36890  eV     1   --> A              
     e( 23 - 23) =    -10.11102  eV     1   --> A              
     e( 24 - 24) =    -10.07816  eV     1   --> A              
     e( 25 - 25) =    -10.07788  eV     1   --> A              
     e( 26 - 26) =     -9.36313  eV     1   --> A              
     e( 27 - 27) =     -9.35899  eV     1   --> A              
     e( 28 - 28) =     -9.24469  eV     1   --> A              
     e( 29 - 29) =     -9.04765  eV     1   --> A              
     e( 30 - 30) =     -8.93357  eV     1   --> A              
     e( 31 - 31) =     -8.92900  eV     1   --> A              
     e( 32 - 32) =     -8.46623  eV     1   --> A              
     e( 33 - 33) =     -8.46478  eV     1   --> A              
     e( 34 - 34) =     -8.31553  eV     1   --> A              
     e( 35 - 35) =     -8.24721  eV     1   --> A              
     e( 36 - 36) =     -8.24650  eV     1   --> A              
     e( 37 - 38) =     -7.81247  eV     2   -->   2 A              
     e( 39 - 39) =     -7.79089  eV     1   --> A              
     e( 40 - 40) =     -7.79014  eV     1   --> A              
     e( 41 - 41) =     -7.33271  eV     1   --> A              
     e( 42 - 43) =     -7.03418  eV     2   -->   2 A              
     e( 44 - 44) =     -6.79270  eV     1   --> A              
     e( 45 - 45) =     -6.67795  eV     1   --> A              
     e( 46 - 46) =     -5.92208  eV     1   --> A              
     e( 47 - 47) =     -5.88863  eV     1   --> A              
     e( 48 - 48) =     -5.68709  eV     1   --> A              
     e( 49 - 49) =     -5.68543  eV     1   --> A              
     e( 50 - 50) =     -5.44449  eV     1   --> A              
     e( 51 - 51) =     -5.43929  eV     1   --> A              
     e( 52 - 52) =     -5.18304  eV     1   --> A              
     e( 53 - 53) =     -5.18128  eV     1   --> A              
     e( 54 - 54) =     -5.01073  eV     1   --> A              
     e( 55 - 55) =     -4.99138  eV     1   --> A              
     e( 56 - 56) =     -4.92905  eV     1   --> A              
     e( 57 - 57) =     -4.92892  eV     1   --> A              
     e( 58 - 58) =     -4.91421  eV     1   --> A              
     e( 59 - 59) =     -4.91401  eV     1   --> A              
     e( 60 - 60) =     -4.90461  eV     1   --> A              
     e( 61 - 61) =     -4.90426  eV     1   --> A              
     e( 62 - 62) =     -4.60218  eV     1   --> A              
     e( 63 - 63) =     -4.46147  eV     1   --> A              
     e( 64 - 64) =     -4.45642  eV     1   --> A              
     e( 65 - 65) =     -4.30701  eV     1   --> A              
     e( 66 - 66) =     -4.10773  eV     1   --> A              
     e( 67 - 67) =     -4.10471  eV     1   --> A              
     e( 68 - 68) =     -4.00477  eV     1   --> A              
     e( 69 - 69) =     -4.00449  eV     1   --> A              
     e( 70 - 70) =     -3.88951  eV     1   --> A              
     e( 71 - 71) =     -3.88816  eV     1   --> A              
     e( 72 - 72) =     -3.80385  eV     1   --> A              
     e( 73 - 73) =     -3.80276  eV     1   --> A              
     e( 74 - 74) =     -3.77083  eV     1   --> A              
     e( 75 - 75) =     -3.58500  eV     1   --> A              
     e( 76 - 76) =     -3.58478  eV     1   --> A              
     e( 77 - 77) =     -3.36548  eV     1   --> A              
     e( 78 - 78) =     -3.35804  eV     1   --> A              
     e( 79 - 79) =     -3.32697  eV     1   --> A              
     e( 80 - 80) =     -3.32173  eV     1   --> A              
     e( 81 - 81) =     -3.30830  eV     1   --> A              
     e( 82 - 82) =     -3.07389  eV     1   --> A              
     e( 83 - 83) =     -2.96270  eV     1   --> A              
     e( 84 - 84) =     -2.96144  eV     1   --> A              
     e( 85 - 85) =     -2.89920  eV     1   --> A              
     e( 86 - 86) =     -2.83454  eV     1   --> A              
     e( 87 - 87) =     -2.82645  eV     1   --> A              
     e( 88 - 88) =     -2.71867  eV     1   --> A              
     e( 89 - 89) =     -2.56974  eV     1   --> A              
     e( 90 - 90) =     -2.35575  eV     1   --> A              
     e( 91 - 91) =     -2.34940  eV     1   --> A              
     e( 92 - 92) =     -2.05135  eV     1   --> A              
     e( 93 - 93) =     -2.04314  eV     1   --> A              
     e( 94 - 94) =     -2.04170  eV     1   --> A              
     e( 95 - 95) =     -2.01011  eV     1   --> A              
     e( 96 - 96) =     -1.97015  eV     1   --> A              
     e( 97 - 97) =     -1.94609  eV     1   --> A              
     e( 98 - 98) =     -1.81474  eV     1   --> A              
     e( 99 - 99) =     -1.78478  eV     1   --> A              
     e(100 -100) =     -1.74830  eV     1   --> A              
     e(101 -101) =     -0.26838  eV     1   --> A              
     e(102 -102) =     -0.22276  eV     1   --> A              
     e(103 -103) =     -0.19387  eV     1   --> A              
     e(104 -104) =      0.08795  eV     1   --> A              
     e(105 -105) =      0.14532  eV     1   --> A              
     e(106 -106) =      0.69790  eV     1   --> A              
     e(107 -107) =      0.71376  eV     1   --> A              
     e(108 -108) =      0.96386  eV     1   --> A              
     e(109 -109) =      0.96601  eV     1   --> A              
     e(110 -110) =      0.97342  eV     1   --> A              
     e(111 -111) =      1.02424  eV     1   --> A              
     e(112 -112) =      1.13010  eV     1   --> A              
     e(113 -113) =      1.14021  eV     1   --> A              
     e(114 -114) =      1.27756  eV     1   --> A              
     e(115 -115) =      1.28614  eV     1   --> A              
     e(116 -116) =      1.29402  eV     1   --> A              
     e(117 -117) =      1.58922  eV     1   --> A              
     e(118 -118) =      1.67328  eV     1   --> A              
     e(119 -119) =      1.85967  eV     1   --> A              
     e(120 -120) =      1.89791  eV     1   --> A              

 **************************************************************************

 **************************************************************************

                    xk=(   0.15000,   0.57735,   0.00000  )

     Band symmetry, C_1 (1)     point group:

     e(  1 -  1) =    -15.38485  eV     1   --> A              
     e(  2 -  2) =    -15.38041  eV     1   --> A              
     e(  3 -  3) =    -15.09841  eV     1   --> A              
     e(  4 -  4) =    -14.64349  eV     1   --> A              
     e(  5 -  6) =    -14.10915  eV     2   -->   2 A              
     e(  7 -  8) =    -13.69909  eV     2   -->   2 A              
     e(  9 -  9) =    -13.47348  eV     1   --> A              
     e( 10 - 10) =    -13.46782  eV     1   --> A              
     e( 11 - 11) =    -13.04498  eV     1   --> A              
     e( 12 - 12) =    -13.04031  eV     1   --> A              
     e( 13 - 13) =    -12.55347  eV     1   --> A              
     e( 14 - 14) =    -12.54857  eV     1   --> A              
     e( 15 - 15) =    -12.28668  eV     1   --> A              
     e( 16 - 16) =    -12.09710  eV     1   --> A              
     e( 17 - 17) =    -11.78187  eV     1   --> A              
     e( 18 - 18) =    -11.77988  eV     1   --> A              
     e( 19 - 19) =    -11.46363  eV     1   --> A              
     e( 20 - 20) =    -10.96109  eV     1   --> A              
     e( 21 - 21) =    -10.38977  eV     1   --> A              
     e( 22 - 22) =    -10.38875  eV     1   --> A              
     e( 23 - 23) =    -10.10632  eV     1   --> A              
     e( 24 - 24) =    -10.06515  eV     1   --> A              
     e( 25 - 25) =    -10.06494  eV     1   --> A              
     e( 26 - 26) =     -9.37745  eV     1   --> A              
     e( 27 - 27) =     -9.37333  eV     1   --> A              
     e( 28 - 28) =     -9.25905  eV     1   --> A              
     e( 29 - 29) =     -9.03963  eV     1   --> A              
     e( 30 - 30) =     -8.89623  eV     1   --> A              
     e( 31 - 31) =     -8.89166  eV     1   --> A              
     e( 32 - 32) =     -8.46437  eV     1   --> A              
     e( 33 - 33) =     -8.46289  eV     1   --> A              
     e( 34 - 34) =     -8.31789  eV     1   --> A              
     e( 35 - 35) =     -8.26832  eV     1   --> A              
     e( 36 - 36) =     -8.26762  eV     1   --> A              
     e( 37 - 38) =     -7.86482  eV     2   -->   2 A              
     e( 39 - 39) =     -7.75987  eV     1   --> A              
     e( 40 - 40) =     -7.75913  eV     1   --> A              
     e( 41 - 41) =     -7.35964  eV     1   --> A              
     e( 42 - 43) =     -6.99122  eV     2   -->   2 A              
     e( 44 - 44) =     -6.84857  eV     1   --> A              
     e( 45 - 45) =     -6.62736  eV     1   --> A              
     e( 46 - 46) =     -5.98080  eV     1   --> A              
     e( 47 - 47) =     -5.83437  eV     1   --> A              
     e( 48 - 48) =     -5.71840  eV     1   --> A              
     e( 49 - 49) =     -5.71675  eV     1   --> A              
     e( 50 - 50) =     -5.44241  eV     1   --> A              
     e( 51 - 51) =     -5.43724  eV     1   --> A              
     e( 52 - 52) =     -5.15154  eV     1   --> A              
     e( 53 - 53) =     -5.14978  eV     1   --> A              
     e( 54 - 54) =     -5.02890  eV     1   --> A              
     e( 55 - 55) =     -4.93653  eV     1   --> A              
     e( 56 - 56) =     -4.92582  eV     1   --> A              
     e( 57 - 57) =     -4.92446  eV     1   --> A              
     e( 58 - 58) =     -4.91706  eV     1   --> A              
     e( 59 - 59) =     -4.91687  eV     1   --> A              
     e( 60 - 60) =     -4.90077  eV     1   --> A              
     e( 61 - 61) =     -4.90058  eV     1   --> A              
     e( 62 - 62) =     -4.57258  eV     1   --> A              
     e( 63 - 63) =     -4.47976  eV     1   --> A              
     e( 64 - 64) =     -4.47471  eV     1   --> A              
     e( 65 - 65) =     -4.34412  eV     1   --> A              
     e( 66 - 66) =     -4.11766  eV     1   --> A              
     e( 67 - 67) =     -4.11474  eV     1   --> A              
     e( 68 - 68) =     -4.02221  eV     1   --> A              
     e( 69 - 69) =     -4.02200  eV     1   --> A              
     e( 70 - 70) =     -3.89139  eV     1   --> A              
     e( 71 - 71) =     -3.88997  eV     1   --> A              
     e( 72 - 72) =     -3.78823  eV     1   --> A              
     e( 73 - 73) =     -3.78715  eV     1   --> A              
     e( 74 - 74) =     -3.74158  eV     1   --> A              
     e( 75 - 75) =     -3.55939  eV     1   --> A              
     e( 76 - 76) =     -3.55918  eV     1   --> A              
     e( 77 - 77) =     -3.39638  eV     1   --> A              
     e( 78 - 78) =     -3.36263  eV     1   --> A              
     e( 79 - 79) =     -3.33605  eV     1   --> A              
     e( 80 - 80) =     -3.33091  eV     1   --> A              
     e( 81 - 81) =     -3.30629  eV     1   --> A              
     e( 82 - 82) =     -3.10406  eV     1   --> A              
     e( 83 - 83) =     -2.96350  eV     1   --> A              
     e( 84 - 84) =     -2.96223  eV     1   --> A              
     e( 85 - 85) =     -2.91374  eV     1   --> A              
     e( 86 - 86) =     -2.86574  eV     1   --> A              
     e( 87 - 87) =     -2.86072  eV     1   --> A              
     e( 88 - 88) =     -2.68209  eV     1   --> A              
     e( 89 - 89) =     -2.54427  eV     1   --> A              
     e( 90 - 90) =     -2.33473  eV     1   --> A              
     e( 91 - 91) =     -2.32775  eV     1   --> A              
     e( 92 - 92) =     -2.06710  eV     1   --> A              
     e( 93 - 93) =     -2.05970  eV     1   --> A              
     e( 94 - 94) =     -2.05826  eV     1   --> A              
     e( 95 - 95) =     -2.02619  eV     1   --> A              
     e( 96 - 96) =     -1.96905  eV     1   --> A              
     e( 97 - 97) =     -1.94775  eV     1   --> A              
     e( 98 - 98) =     -1.80441  eV     1   --> A              
     e( 99 - 99) =     -1.77648  eV     1   --> A              
     e(100 -100) =     -1.74017  eV     1   --> A              
     e(101 -101) =     -0.27147  eV     1   --> A              
     e(102 -102) =     -0.23654  eV     1   --> A              
     e(103 -103) =     -0.20973  eV     1   --> A              
     e(104 -104) =      0.10707  eV     1   --> A              
     e(105 -105) =      0.16691  eV     1   --> A              
     e(106 -106) =      0.67055  eV     1   --> A              
     e(107 -107) =      0.74987  eV     1   --> A              
     e(108 -108) =      0.96945  eV     1   --> A              
     e(109 -109) =      0.99476  eV     1   --> A              
     e(110 -110) =      0.99688  eV     1   --> A              
     e(111 -111) =      1.02246  eV     1   --> A              
     e(112 -112) =      1.11848  eV     1   --> A              
     e(113 -113) =      1.16046  eV     1   --> A              
     e(114 -114) =      1.25836  eV     1   --> A              
     e(115 -115) =      1.28706  eV     1   --> A              
     e(116 -116) =      1.29587  eV     1   --> A              
     e(117 -117) =      1.62488  eV     1   --> A              
     e(118 -118) =      1.69619  eV     1   --> A              
     e(119 -119) =      1.82183  eV     1   --> A              
     e(120 -120) =      1.85831  eV     1   --> A              

 **************************************************************************

 **************************************************************************

                    xk=(   0.16667,   0.57735,   0.00000  )

     Band symmetry, C_1 (1)     point group:

     e(  1 -  1) =    -15.38072  eV     1   --> A              
     e(  2 -  2) =    -15.37628  eV     1   --> A              
     e(  3 -  3) =    -15.12002  eV     1   --> A              
     e(  4 -  4) =    -14.61500  eV     1   --> A              
     e(  5 -  6) =    -14.12902  eV     2   -->   2 A              
     e(  7 -  8) =    -13.67384  eV     2   -->   2 A              
     e(  9 -  9) =    -13.46995  eV     1   --> A              
     e( 10 - 10) =    -13.46429  eV     1   --> A              
     e( 11 - 11) =    -13.07760  eV     1   --> A              
[...]
     e( 62 - 62) =     -4.75204  eV     1   --> A'             
     e( 63 - 63) =     -4.42283  eV     1   --> A''            
     e( 64 - 64) =     -4.35019  eV     1   --> A''            
     e( 65 - 65) =     -4.26245  eV     1   --> A'             
     e( 66 - 66) =     -4.01772  eV     1   --> A''            
     e( 67 - 67) =     -4.01747  eV     1   --> A'             
     e( 68 - 68) =     -4.01716  eV     1   --> A''            
     e( 69 - 69) =     -4.01682  eV     1   --> A'             
     e( 70 - 70) =     -3.90969  eV     1   --> A''            
     e( 71 - 71) =     -3.90908  eV     1   --> A'             
     e( 72 - 72) =     -3.88789  eV     1   --> A'             
     e( 73 - 73) =     -3.73498  eV     1   --> A''            
     e( 74 - 74) =     -3.73456  eV     1   --> A'             
     e( 75 - 75) =     -3.69175  eV     1   --> A''            
     e( 76 - 76) =     -3.69109  eV     1   --> A'             
     e( 77 - 77) =     -3.48229  eV     1   --> A'             
     e( 78 - 78) =     -3.34725  eV     1   --> A''            
     e( 79 - 79) =     -3.23986  eV     1   --> A''            
     e( 80 - 80) =     -3.21574  eV     1   --> A'             
     e( 81 - 81) =     -3.03907  eV     1   --> A''            
     e( 82 - 82) =     -3.03814  eV     1   --> A'             
     e( 83 - 83) =     -2.99935  eV     1   --> A'             
     e( 84 - 84) =     -2.93958  eV     1   --> A''            
     e( 85 - 85) =     -2.89007  eV     1   --> A'             
     e( 86 - 86) =     -2.75249  eV     1   --> A''            
     e( 87 - 87) =     -2.75148  eV     1   --> A'             
     e( 88 - 88) =     -2.58357  eV     1   --> A'             
     e( 89 - 89) =     -2.58296  eV     1   --> A''            
     e( 90 - 90) =     -2.54941  eV     1   --> A''            
     e( 91 - 91) =     -2.54883  eV     1   --> A'             
     e( 92 - 92) =     -2.05076  eV     1   --> A''            
     e( 93 - 93) =     -2.04043  eV     1   --> A'             
     e( 94 - 94) =     -1.98006  eV     1   --> A''            
     e( 95 - 95) =     -1.97816  eV     1   --> A'             
     e( 96 - 96) =     -1.89641  eV     1   --> A''            
     e( 97 - 97) =     -1.89352  eV     1   --> A''            
     e( 98 - 98) =     -1.89281  eV     1   --> A'             
     e( 99 - 99) =     -1.78086  eV     1   --> A''            
     e(100 -100) =     -1.77960  eV     1   --> A'             
     e(101 -101) =     -0.25123  eV     1   --> A'             
     e(102 -102) =     -0.13157  eV     1   --> A''            
     e(103 -103) =     -0.12910  eV     1   --> A'             
     e(104 -104) =      0.01567  eV     1   --> A''            
     e(105 -105) =      0.01733  eV     1   --> A'             
     e(106 -106) =      0.57579  eV     1   --> A'             
     e(107 -107) =      0.78644  eV     1   --> A'             
     e(108 -108) =      0.85111  eV     1   --> A'             
     e(109 -109) =      0.91433  eV     1   --> A'             
     e(110 -110) =      0.91451  eV     1   --> A''            
     e(111 -111) =      1.01417  eV     1   --> A''            
     e(112 -112) =      1.02486  eV     1   --> A'             
     e(113 -113) =      1.26083  eV     1   --> A'             
     e(114 -114) =      1.29749  eV     1   --> A'             
     e(115 -115) =      1.30294  eV     1   --> A''            
     e(116 -116) =      1.31184  eV     1   --> A'             
     e(117 -117) =      1.47586  eV     1   --> A'             
     e(118 -118) =      1.48178  eV     1   --> A''            
     e(119 -119) =      1.93510  eV     1   --> A'             
     e(120 -120) =      2.00868  eV     1   -->   ?

 **************************************************************************

 **************************************************************************

                    xk=(   0.00000,   0.54848,   0.00000  )

     Band symmetry, C_s (m)     point group:

     e(  1 -  1) =    -15.42583  eV     1   --> A'             
     e(  2 -  2) =    -15.37336  eV     1   --> A'             
     e(  3 -  3) =    -14.88582  eV     1   --> A''            
     e(  4 -  4) =    -14.88521  eV     1   --> A'             
     e(  5 -  5) =    -13.96171  eV     1   --> A''            
     e(  6 -  6) =    -13.96116  eV     1   --> A'             
     e(  7 -  7) =    -13.86912  eV     1   --> A''            
     e(  8 -  8) =    -13.86857  eV     1   --> A'             
     e(  9 -  9) =    -13.54758  eV     1   --> A'             
     e( 10 - 10) =    -13.42460  eV     1   --> A'             
     e( 11 - 11) =    -12.77785  eV     1   --> A'             
     e( 12 - 12) =    -12.77723  eV     1   --> A''            
     e( 13 - 13) =    -12.75889  eV     1   --> A''            
     e( 14 - 14) =    -12.75840  eV     1   --> A'             
     e( 15 - 15) =    -12.18623  eV     1   --> A''            
     e( 16 - 16) =    -12.18570  eV     1   --> A'             
     e( 17 - 17) =    -11.82916  eV     1   --> A'             
     e( 18 - 18) =    -11.77072  eV     1   --> A'             
     e( 19 - 19) =    -11.22870  eV     1   --> A''            
     e( 20 - 20) =    -11.22686  eV     1   --> A'             
     e( 21 - 21) =    -10.26001  eV     1   --> A''            
     e( 22 - 22) =    -10.25819  eV     1   --> A'             
     e( 23 - 23) =    -10.16500  eV     1   --> A''            
     e( 24 - 24) =    -10.16321  eV     1   --> A'             
     e( 25 - 25) =    -10.13250  eV     1   --> A'             
     e( 26 - 26) =     -9.23379  eV     1   --> A''            
     e( 27 - 27) =     -9.23361  eV     1   --> A'             
     e( 28 - 29) =     -9.14345  eV     2   --> A'             
     e( 28 - 29) =     -9.14345  eV     2   --> A''            
     e( 30 - 30) =     -9.13223  eV     1   --> A''            
     e( 31 - 31) =     -9.13190  eV     1   --> A'             
     e( 32 - 32) =     -8.57148  eV     1   --> A'             
     e( 33 - 33) =     -8.37403  eV     1   --> A'             
     e( 34 - 34) =     -8.30082  eV     1   --> A'             
     e( 35 - 35) =     -8.09133  eV     1   --> A''            
     e( 36 - 36) =     -8.09015  eV     1   --> A'             
     e( 37 - 37) =     -7.98283  eV     1   --> A''            
     e( 38 - 38) =     -7.98171  eV     1   --> A'             
     e( 39 - 39) =     -7.46092  eV     1   --> A'             
     e( 40 - 40) =     -7.46073  eV     1   --> A''            
     e( 41 - 41) =     -7.35196  eV     1   --> A'             
     e( 42 - 42) =     -7.35175  eV     1   --> A''            
     e( 43 - 43) =     -7.04914  eV     1   --> A'             
     e( 44 - 44) =     -7.04891  eV     1   --> A''            
     e( 45 - 45) =     -6.34197  eV     1   --> A''            
     e( 46 - 46) =     -6.34133  eV     1   --> A'             
     e( 47 - 48) =     -5.50744  eV     2   --> A'             
     e( 47 - 48) =     -5.50744  eV     2   --> A''            
     e( 49 - 49) =     -5.47094  eV     1   --> A'             
     e( 50 - 50) =     -5.46022  eV     1   --> A''            
     e( 51 - 51) =     -5.45930  eV     1   --> A'             
     e( 52 - 52) =     -5.43577  eV     1   --> A'             
     e( 53 - 54) =     -5.36764  eV     2   --> A'             
     e( 53 - 54) =     -5.36764  eV     2   --> A''            
     e( 55 - 55) =     -5.01948  eV     1   --> A'             
     e( 56 - 56) =     -5.01905  eV     1   --> A''            
     e( 57 - 57) =     -4.94686  eV     1   --> A'             
     e( 58 - 58) =     -4.86401  eV     1   --> A'             
     e( 59 - 59) =     -4.86325  eV     1   --> A''            
     e( 60 - 60) =     -4.82183  eV     1   --> A''            
     e( 61 - 61) =     -4.82146  eV     1   --> A'             
     e( 62 - 62) =     -4.81452  eV     1   --> A'             
     e( 63 - 63) =     -4.40624  eV     1   --> A''            
     e( 64 - 64) =     -4.36974  eV     1   --> A''            
     e( 65 - 65) =     -4.16374  eV     1   --> A'             
     e( 66 - 66) =     -4.02080  eV     1   --> A''            
     e( 67 - 67) =     -4.02063  eV     1   --> A'             
     e( 68 - 68) =     -3.97748  eV     1   --> A'             
     e( 69 - 69) =     -3.95856  eV     1   --> A''            
     e( 70 - 70) =     -3.95828  eV     1   --> A'             
     e( 71 - 71) =     -3.88142  eV     1   --> A''            
     e( 72 - 72) =     -3.88090  eV     1   --> A'             
     e( 73 - 73) =     -3.78344  eV     1   --> A''            
     e( 74 - 74) =     -3.78294  eV     1   --> A'             
     e( 75 - 75) =     -3.73901  eV     1   --> A''            
     e( 76 - 76) =     -3.73835  eV     1   --> A'             
     e( 77 - 77) =     -3.42097  eV     1   --> A'             
     e( 78 - 78) =     -3.31995  eV     1   --> A''            
     e( 79 - 79) =     -3.27813  eV     1   --> A'             
     e( 80 - 80) =     -3.26858  eV     1   --> A''            
     e( 81 - 81) =     -3.04395  eV     1   --> A''            
     e( 82 - 82) =     -3.04303  eV     1   --> A'             
     e( 83 - 83) =     -2.98267  eV     1   --> A'             
     e( 84 - 84) =     -2.94167  eV     1   --> A''            
     e( 85 - 85) =     -2.92842  eV     1   --> A'             
     e( 86 - 86) =     -2.75508  eV     1   --> A''            
     e( 87 - 87) =     -2.75407  eV     1   --> A'             
     e( 88 - 88) =     -2.57553  eV     1   --> A'             
     e( 89 - 89) =     -2.57441  eV     1   --> A''            
     e( 90 - 90) =     -2.55727  eV     1   --> A''            
     e( 91 - 91) =     -2.55617  eV     1   --> A'             
     e( 92 - 92) =     -2.03345  eV     1   --> A'             
     e( 93 - 93) =     -2.01179  eV     1   --> A''            
     e( 94 - 94) =     -1.94467  eV     1   --> A''            
     e( 95 - 95) =     -1.94151  eV     1   --> A'             
     e( 96 - 96) =     -1.93312  eV     1   --> A''            
     e( 97 - 97) =     -1.88637  eV     1   --> A''            
     e( 98 - 98) =     -1.88561  eV     1   --> A'             
     e( 99 - 99) =     -1.81965  eV     1   --> A''            
     e(100 -100) =     -1.81821  eV     1   --> A'             
     e(101 -101) =     -0.25781  eV     1   --> A'             
     e(102 -102) =     -0.09776  eV     1   --> A''            
     e(103 -103) =     -0.09556  eV     1   --> A'             
     e(104 -104) =     -0.01497  eV     1   --> A''            
     e(105 -105) =     -0.01332  eV     1   --> A'             
     e(106 -106) =      0.57183  eV     1   --> A'             
     e(107 -107) =      0.81705  eV     1   --> A'             
     e(108 -108) =      0.84873  eV     1   --> A'             
     e(109 -109) =      0.92212  eV     1   --> A''            
     e(110 -110) =      0.92226  eV     1   --> A'             
     e(111 -111) =      1.00676  eV     1   --> A''            
     e(112 -112) =      1.01708  eV     1   --> A'             
     e(113 -113) =      1.27139  eV     1   --> A'             
     e(114 -114) =      1.29178  eV     1   --> A'             
     e(115 -115) =      1.30919  eV     1   --> A''            
     e(116 -116) =      1.31843  eV     1   --> A'             
     e(117 -117) =      1.46668  eV     1   --> A'             
     e(118 -118) =      1.47292  eV     1   --> A''            
     e(119 -119) =      2.01819  eV     1   --> A'             
     e(120 -120) =      2.12686  eV     1   -->   ?

 **************************************************************************

 **************************************************************************

                    xk=(   0.00000,   0.57735,   0.00000  )

     Band symmetry, C_s (m)     point group:

     e(  1 -  1) =    -15.40247  eV     1   --> A'             
     e(  2 -  2) =    -15.39804  eV     1   --> A'             
     e(  3 -  3) =    -14.88662  eV     1   --> A''            
     e(  4 -  4) =    -14.88602  eV     1   --> A'             
     e(  5 -  5) =    -13.91606  eV     1   --> A''            
     e(  6 -  6) =    -13.91575  eV     1   --> A''            
     e(  7 -  7) =    -13.91545  eV     1   --> A'             
     e(  8 -  8) =    -13.91526  eV     1   --> A'             
     e(  9 -  9) =    -13.48893  eV     1   --> A'             
     e( 10 - 10) =    -13.48327  eV     1   --> A'             
     e( 11 - 11) =    -12.77224  eV     1   --> A'             
     e( 12 - 12) =    -12.77050  eV     1   --> A''            
     e( 13 - 13) =    -12.76593  eV     1   --> A''            
     e( 14 - 14) =    -12.76432  eV     1   --> A'             
     e( 15 - 15) =    -12.18405  eV     1   --> A''            
     e( 16 - 16) =    -12.18352  eV     1   --> A'             
     e( 17 - 17) =    -11.80171  eV     1   --> A'             
     e( 18 - 18) =    -11.79971  eV     1   --> A'             
     e( 19 - 19) =    -11.22956  eV     1   --> A''            
     e( 20 - 20) =    -11.22772  eV     1   --> A'             
     e( 21 - 21) =    -10.21376  eV     1   --> A''            
     e( 22 - 22) =    -10.21221  eV     1   --> A''            
     e( 23 - 23) =    -10.21173  eV     1   --> A'             
     e( 24 - 24) =    -10.21062  eV     1   --> A'             
     e( 25 - 25) =    -10.12881  eV     1   --> A'             
     e( 26 - 26) =     -9.19355  eV     1   --> A''            
     e( 27 - 27) =     -9.19107  eV     1   --> A'             
     e( 28 - 28) =     -9.18806  eV     1   --> A'             
     e( 29 - 29) =     -9.18566  eV     1   --> A''            
     e( 30 - 30) =     -9.13587  eV     1   --> A''            
     e( 31 - 31) =     -9.13548  eV     1   --> A'             
     e( 32 - 32) =     -8.47414  eV     1   --> A'             
     e( 33 - 33) =     -8.47276  eV     1   --> A'             
     e( 34 - 34) =     -8.30674  eV     1   --> A'             
     e( 35 - 35) =     -8.03813  eV     1   --> A''            
     e( 36 - 36) =     -8.03624  eV     1   --> A'             
     e( 37 - 37) =     -8.03604  eV     1   --> A''            
     e( 38 - 38) =     -8.03563  eV     1   --> A'             
     e( 39 - 39) =     -7.40697  eV     1   --> A'             
     e( 40 - 40) =     -7.40672  eV     1   --> A''            
     e( 41 - 41) =     -7.40659  eV     1   --> A'             
     e( 42 - 42) =     -7.40644  eV     1   --> A''            
     e( 43 - 43) =     -7.05162  eV     1   --> A'             
     e( 44 - 44) =     -7.05139  eV     1   --> A''            
     e( 45 - 45) =     -6.34005  eV     1   --> A''            
     e( 46 - 46) =     -6.33942  eV     1   --> A'             
     e( 47 - 47) =     -5.46252  eV     1   --> A'             
     e( 48 - 48) =     -5.45810  eV     1   --> A''            
     e( 49 - 49) =     -5.45007  eV     1   --> A'             
     e( 50 - 50) =     -5.44847  eV     1   --> A'             
     e( 51 - 52) =     -5.43991  eV     2   --> A'             
     e( 51 - 52) =     -5.43991  eV     2   --> A''            
     e( 53 - 53) =     -5.43596  eV     1   --> A''            
     e( 54 - 54) =     -5.43574  eV     1   --> A'             
     e( 55 - 55) =     -4.94195  eV     1   --> A'             
     e( 56 - 57) =     -4.94130  eV     2   --> A'             
     e( 56 - 57) =     -4.94130  eV     2   --> A''            
     e( 58 - 58) =     -4.94084  eV     1   --> A''            
     e( 59 - 59) =     -4.88060  eV     1   --> A'             
     e( 60 - 60) =     -4.88031  eV     1   --> A'             
     e( 61 - 61) =     -4.82291  eV     1   --> A''            
     e( 62 - 62) =     -4.82227  eV     1   --> A'             
     e( 63 - 63) =     -4.39128  eV     1   --> A''            
     e( 64 - 64) =     -4.38622  eV     1   --> A''            
     e( 65 - 65) =     -4.07202  eV     1   --> A'             
     e( 66 - 66) =     -4.06862  eV     1   --> A'             
     e( 67 - 67) =     -4.02487  eV     1   --> A''            
     e( 68 - 68) =     -4.02394  eV     1   --> A'             
     e( 69 - 70) =     -3.90449  eV     2   --> A'             
     e( 69 - 70) =     -3.90449  eV     2   --> A''            
     e( 71 - 71) =     -3.90376  eV     1   --> A''            
     e( 72 - 72) =     -3.90301  eV     1   --> A'             
     e( 73 - 73) =     -3.77923  eV     1   --> A''            
     e( 74 - 74) =     -3.77837  eV     1   --> A''            
     e( 75 - 76) =     -3.77820  eV     2   -->   2 A'             
     e( 77 - 77) =     -3.37898  eV     1   --> A'             
     e( 78 - 78) =     -3.31990  eV     1   --> A'             
     e( 79 - 79) =     -3.29755  eV     1   --> A''            
     e( 80 - 80) =     -3.29195  eV     1   --> A''            
     e( 81 - 81) =     -3.04561  eV     1   --> A''            
     e( 82 - 82) =     -3.04468  eV     1   --> A'             
     e( 83 - 83) =     -2.95977  eV     1   --> A'             
     e( 84 - 84) =     -2.95859  eV     1   --> A'             
     e( 85 - 85) =     -2.94237  eV     1   --> A''            
     e( 86 - 86) =     -2.75600  eV     1   --> A''            
     e( 87 - 87) =     -2.75498  eV     1   --> A'             
     e( 88 - 88) =     -2.57157  eV     1   --> A'             
     e( 89 - 89) =     -2.56903  eV     1   --> A''            
     e( 90 - 90) =     -2.56348  eV     1   --> A''            
     e( 91 - 91) =     -2.56098  eV     1   --> A'             
     e( 92 - 92) =     -2.03108  eV     1   --> A'             
     e( 93 - 93) =     -1.97397  eV     1   --> A''            
     e( 94 - 94) =     -1.97202  eV     1   --> A''            
     e( 95 - 95) =     -1.92496  eV     1   --> A''            
     e( 96 - 96) =     -1.92249  eV     1   --> A'             
     e( 97 - 97) =     -1.88335  eV     1   --> A'             
     e( 98 - 98) =     -1.88316  eV     1   --> A''            
     e( 99 - 99) =     -1.83991  eV     1   --> A''            
     e(100 -100) =     -1.83813  eV     1   --> A'             
     e(101 -101) =     -0.26003  eV     1   --> A'             
     e(102 -102) =     -0.07762  eV     1   --> A''            
     e(103 -103) =     -0.07544  eV     1   --> A'             
     e(104 -104) =     -0.03412  eV     1   --> A''            
     e(105 -105) =     -0.03253  eV     1   --> A'             
     e(106 -106) =      0.57052  eV     1   --> A'             
     e(107 -107) =      0.83644  eV     1   --> A'             
     e(108 -108) =      0.83870  eV     1   --> A'             
     e(109 -109) =      0.92462  eV     1   --> A''            
     e(110 -110) =      0.92489  eV     1   --> A'             
     e(111 -111) =      1.00426  eV     1   --> A''            
     e(112 -112) =      1.01443  eV     1   --> A'             
     e(113 -113) =      1.27786  eV     1   --> A'             
     e(114 -114) =      1.28686  eV     1   --> A'             
     e(115 -115) =      1.31117  eV     1   --> A''            
     e(116 -116) =      1.32058  eV     1   --> A'             
     e(117 -117) =      1.46323  eV     1   --> A'             
     e(118 -118) =      1.46962  eV     1   --> A''            
     e(119 -119) =      2.08633  eV     1   --> A'             
     e(120 -120) =      2.12164  eV     1   --> A'             

 **************************************************************************

     BANDS        : 10m 2.81s CPU    14m 9.88s WALL


   This run was terminated on:   1:49:44  20Apr2020            

=------------------------------------------------------------------------------=
   JOB DONE.
=------------------------------------------------------------------------------=
