
     Program PWSCF v.6.3 starts on 18Apr2020 at 13:47:51 

     This program is part of the open-source Quantum ESPRESSO suite
     for quantum simulation of materials; please cite
         "P. Giannozzi et al., J. Phys.:Condens. Matter 21 395502 (2009);
         "P. Giannozzi et al., J. Phys.:Condens. Matter 29 465901 (2017);
          URL http://www.quantum-espresso.org", 
     in publications or presentations arising from this work. More details at
     http://www.quantum-espresso.org/quote

     Parallel version (MPI), running on     1 processors

     MPI processes distributed on     1 nodes
     Reading input from /home/nano3/Desktop/RAYID/Ge+SiC/Ge+SiC_III/Ge+SiC_III__4.0.scf.in

     Current dimensions of program PWSCF are:
     Max number of different atomic species (ntypx) = 10
     Max number of k-points (npk) =  40000
     Max angular momentum in pseudopotentials (lmaxx) =  3

     IMPORTANT: XC functional enforced from input :
     Exchange-correlation      = PBE ( 1  4  3  4 0 0)
     Any further DFT definition will be discarded
     Please, verify this is what you really want

               file Ge.pbe-mt_fhi.UPF: wavefunction(s)  4d 4f renormalized
               file C.pbe-mt_fhi.UPF: wavefunction(s)  4f renormalized
               file Si.pbe-mt_fhi.UPF: wavefunction(s)  4f renormalized

     -------------------------------------------------
     Parameters for Dispersion (Grimme-D2) Correction:
     -------------------------------------------------
       atom      VdW radius       C_6     

        Ge         3.264        593.221
        C          2.744         60.710
        Si         3.243        320.200

     Subspace diagonalization in iterative solution of the eigenvalue problem:
     a serial algorithm will be used


     G-vector sticks info
     --------------------
     sticks:   dense  smooth     PW     G-vecs:    dense   smooth      PW
     Sum        4429    4429   1177               388955   388955   53541



     bravais-lattice index     =            4
     lattice parameter (alat)  =      23.1302  a.u.
     unit-cell volume          =   17511.3678 (a.u.)^3
     number of atoms/cell      =           50
     number of atomic types    =            3
     number of electrons       =       200.00
     number of Kohn-Sham states=          120
     kinetic-energy cutoff     =      30.0000  Ry
     charge density cutoff     =     120.0000  Ry
     convergence threshold     =      1.0E-04
     mixing beta               =       0.7000
     number of iterations used =            8  plain     mixing
     Exchange-correlation      = PBE ( 1  4  3  4 0 0)

     celldm(1)=  23.130248  celldm(2)=   0.000000  celldm(3)=   1.633987
     celldm(4)=   0.000000  celldm(5)=   0.000000  celldm(6)=   0.000000

     crystal axes: (cart. coord. in units of alat)
               a(1) = (   1.000000   0.000000   0.000000 )  
               a(2) = (  -0.500000   0.866025   0.000000 )  
               a(3) = (   0.000000   0.000000   1.633987 )  

     reciprocal axes: (cart. coord. in units 2 pi/alat)
               b(1) = (  1.000000  0.577350 -0.000000 )  
               b(2) = (  0.000000  1.154701  0.000000 )  
               b(3) = (  0.000000 -0.000000  0.612000 )  


     PseudoPot. # 1 for Ge read from file:
     /home/nano3/Desktop/RAYID/qe-6.3/bin/pseudo/Ge.pbe-mt_fhi.UPF
     MD5 check sum: b08ff19c3d362044f6e29226b459d86a
     Pseudo is Norm-conserving, Zval =  4.0
     Generated using FHI98PP, converted with fhi2upf.x v.5.0.2
     Using radial grid of  529 points,  3 beta functions with: 
                l(1) =   1
                l(2) =   2
                l(3) =   3

     PseudoPot. # 2 for C  read from file:
     /home/nano3/Desktop/RAYID/qe-6.3/bin/pseudo/C.pbe-mt_fhi.UPF
     MD5 check sum: 058ca341f9d6d5327d9962fd88a91b65
     Pseudo is Norm-conserving, Zval =  4.0
     Generated using FHI98PP, converted with fhi2upf.x v.5.0.2
     Using radial grid of  461 points,  3 beta functions with: 
                l(1) =   0
                l(2) =   1
                l(3) =   3

     PseudoPot. # 3 for Si read from file:
     /home/nano3/Desktop/RAYID/qe-6.3/bin/pseudo/Si.pbe-mt_fhi.UPF
     MD5 check sum: 259057c2adf9952f9ced37ae3d9e311d
     Pseudo is Norm-conserving, Zval =  4.0
     Generated using FHI98PP, converted with fhi2upf.x v.5.0.2
     Using radial grid of  495 points,  3 beta functions with: 
                l(1) =   0
                l(2) =   1
                l(3) =   3

     atomic species   valence    mass     pseudopotential
        Ge             4.00    72.59000     Ge( 1.00)
        C              4.00    12.01070     C ( 1.00)
        Si             4.00    28.08550     Si( 1.00)

      2 Sym. Ops. (no inversion) found


                                    s                        frac. trans.

      isym =  1     identity                                     

 cryst.   s( 1) = (     1          0          0      )
                  (     0          1          0      )
                  (     0          0          1      )

 cart.    s( 1) = (  1.0000000  0.0000000  0.0000000 )
                  (  0.0000000  1.0000000  0.0000000 )
                  (  0.0000000  0.0000000  1.0000000 )


      isym =  2     inv. 180 deg rotation - cart. axis [1,0,0]   

 cryst.   s( 2) = (    -1          0          0      )
                  (     1          1          0      )
                  (     0          0          1      )

 cart.    s( 2) = ( -1.0000000  0.0000000  0.0000000 )
                  (  0.0000000  1.0000000  0.0000000 )
                  (  0.0000000  0.0000000  1.0000000 )


     point group C_s (m)    
     there are  2 classes
     the character table:

       E     s    
A'     1.00  1.00
A''    1.00 -1.00

     the symmetry operations in each class and the name of the first element:

     E        1
          identity                                               
     s        2
          inv. 180 deg rotation - cart. axis [1,0,0]             

   Cartesian axes

     site n.     atom                  positions (alat units)
         1           Ge  tau(   1) = (   0.0000000   0.1847712   0.3816993  )
         2           Ge  tau(   2) = (  -0.1666667   0.4734464   0.3816993  )
         3           Ge  tau(   3) = (  -0.3333333   0.7621215   0.3816993  )
         4           Ge  tau(   4) = (   0.3333333   0.1847712   0.3816993  )
         5           Ge  tau(   5) = (   0.1666667   0.2809954   0.3267974  )
         6           Ge  tau(   6) = (   0.1666667   0.4734464   0.3816993  )
         7           Ge  tau(   7) = (   0.0000000   0.5696705   0.3267974  )
         8           Ge  tau(   8) = (   0.0000000   0.7621215   0.3816993  )
         9           Ge  tau(   9) = (  -0.1666667   0.8583457   0.3267974  )
        10           Ge  tau(  10) = (   0.6666667   0.1847712   0.3816993  )
        11           Ge  tau(  11) = (   0.5000000   0.2809954   0.3267974  )
        12           Ge  tau(  12) = (   0.5000000   0.4734464   0.3816993  )
        13           Ge  tau(  13) = (   0.3333333   0.5696705   0.3267974  )
        14           Ge  tau(  14) = (   0.3333333   0.7621215   0.3816993  )
        15           Ge  tau(  15) = (   0.1666667   0.8583457   0.3267974  )
        16           Ge  tau(  16) = (   0.8333333   0.2809954   0.3267974  )
        17           Ge  tau(  17) = (   0.6666667   0.5696705   0.3267974  )
        18           Ge  tau(  18) = (   0.5000000   0.8583457   0.3267974  )
        19           Si  tau(  19) = (   0.0000000   0.1388889   0.0000000  )
        20           Si  tau(  20) = (  -0.1250000   0.3553952   0.0000000  )
        21           Si  tau(  21) = (  -0.2500000   0.5719016   0.0000000  )
        22           Si  tau(  22) = (  -0.3750000   0.7884079   0.0000000  )
        23           Si  tau(  23) = (   0.2500000   0.1388889   0.0000000  )
        24           C   tau(  24) = (   0.1250000   0.2110570   0.0000000  )
        25           Si  tau(  25) = (   0.1250000   0.3553952   0.0000000  )
        26           C   tau(  26) = (   0.0000000   0.4275634   0.0000000  )
        27           Si  tau(  27) = (   0.0000000   0.5719016   0.0000000  )
        28           C   tau(  28) = (  -0.1250000   0.6440697   0.0000000  )
        29           Si  tau(  29) = (  -0.1250000   0.7884079   0.0000000  )
        30           C   tau(  30) = (  -0.2500000   0.8605761   0.0000000  )
        31           Si  tau(  31) = (   0.5000000   0.1388889   0.0000000  )
        32           C   tau(  32) = (   0.3750000   0.2110570   0.0000000  )
        33           Si  tau(  33) = (   0.3750000   0.3553952   0.0000000  )
        34           C   tau(  34) = (   0.2500000   0.4275634   0.0000000  )
        35           Si  tau(  35) = (   0.2500000   0.5719016   0.0000000  )
        36           C   tau(  36) = (   0.1250000   0.6440697   0.0000000  )
        37           Si  tau(  37) = (   0.1250000   0.7884079   0.0000000  )
        38           C   tau(  38) = (   0.0000000   0.8605761   0.0000000  )
        39           Si  tau(  39) = (   0.7500000   0.1388889   0.0000000  )
        40           C   tau(  40) = (   0.6250000   0.2110570   0.0000000  )
        41           Si  tau(  41) = (   0.6250000   0.3553952   0.0000000  )
        42           C   tau(  42) = (   0.5000000   0.4275634   0.0000000  )
        43           Si  tau(  43) = (   0.5000000   0.5719016   0.0000000  )
        44           C   tau(  44) = (   0.3750000   0.6440697   0.0000000  )
        45           Si  tau(  45) = (   0.3750000   0.7884079   0.0000000  )
        46           C   tau(  46) = (   0.2500000   0.8605761   0.0000000  )
        47           C   tau(  47) = (   0.8750000   0.2110570   0.0000000  )
        48           C   tau(  48) = (   0.7500000   0.4275634   0.0000000  )
        49           C   tau(  49) = (   0.6250000   0.6440697   0.0000000  )
        50           C   tau(  50) = (   0.5000000   0.8605761   0.0000000  )

   Crystallographic axes

     site n.     atom                  positions (cryst. coord.)
         1           Ge  tau(   1) = (  0.1066777  0.2133555  0.2336000  )
         2           Ge  tau(   2) = (  0.1066777  0.5466888  0.2336000  )
         3           Ge  tau(   3) = (  0.1066777  0.8800221  0.2336000  )
         4           Ge  tau(   4) = (  0.4400111  0.2133555  0.2336000  )
         5           Ge  tau(   5) = (  0.3288994  0.3244655  0.2000000  )
         6           Ge  tau(   6) = (  0.4400111  0.5466888  0.2336000  )
         7           Ge  tau(   7) = (  0.3288994  0.6577989  0.2000000  )
         8           Ge  tau(   8) = (  0.4400111  0.8800221  0.2336000  )
         9           Ge  tau(   9) = (  0.3288994  0.9911322  0.2000000  )
        10           Ge  tau(  10) = (  0.7733444  0.2133555  0.2336000  )
        11           Ge  tau(  11) = (  0.6622328  0.3244655  0.2000000  )
        12           Ge  tau(  12) = (  0.7733444  0.5466888  0.2336000  )
        13           Ge  tau(  13) = (  0.6622328  0.6577989  0.2000000  )
        14           Ge  tau(  14) = (  0.7733444  0.8800221  0.2336000  )
        15           Ge  tau(  15) = (  0.6622328  0.9911322  0.2000000  )
        16           Ge  tau(  16) = (  0.9955661  0.3244655  0.2000000  )
        17           Ge  tau(  17) = (  0.9955661  0.6577989  0.2000000  )
        18           Ge  tau(  18) = (  0.9955661  0.9911322  0.2000000  )
        19           Si  tau(  19) = (  0.0801875  0.1603751  0.0000000  )
        20           Si  tau(  20) = (  0.0801875  0.4103751  0.0000000  )
        21           Si  tau(  21) = (  0.0801875  0.6603751  0.0000000  )
        22           Si  tau(  22) = (  0.0801875  0.9103751  0.0000000  )
        23           Si  tau(  23) = (  0.3301875  0.1603751  0.0000000  )
        24           C   tau(  24) = (  0.2468538  0.2437076  0.0000000  )
        25           Si  tau(  25) = (  0.3301875  0.4103751  0.0000000  )
        26           C   tau(  26) = (  0.2468538  0.4937076  0.0000000  )
        27           Si  tau(  27) = (  0.3301875  0.6603751  0.0000000  )
        28           C   tau(  28) = (  0.2468538  0.7437076  0.0000000  )
        29           Si  tau(  29) = (  0.3301875  0.9103751  0.0000000  )
        30           C   tau(  30) = (  0.2468538  0.9937076  0.0000000  )
        31           Si  tau(  31) = (  0.5801875  0.1603751  0.0000000  )
        32           C   tau(  32) = (  0.4968538  0.2437076  0.0000000  )
        33           Si  tau(  33) = (  0.5801875  0.4103751  0.0000000  )
        34           C   tau(  34) = (  0.4968538  0.4937076  0.0000000  )
        35           Si  tau(  35) = (  0.5801875  0.6603751  0.0000000  )
        36           C   tau(  36) = (  0.4968538  0.7437076  0.0000000  )
        37           Si  tau(  37) = (  0.5801875  0.9103751  0.0000000  )
        38           C   tau(  38) = (  0.4968538  0.9937076  0.0000000  )
        39           Si  tau(  39) = (  0.8301875  0.1603751  0.0000000  )
        40           C   tau(  40) = (  0.7468538  0.2437076  0.0000000  )
        41           Si  tau(  41) = (  0.8301875  0.4103751  0.0000000  )
        42           C   tau(  42) = (  0.7468538  0.4937076  0.0000000  )
        43           Si  tau(  43) = (  0.8301875  0.6603751  0.0000000  )
        44           C   tau(  44) = (  0.7468538  0.7437076  0.0000000  )
        45           Si  tau(  45) = (  0.8301875  0.9103751  0.0000000  )
        46           C   tau(  46) = (  0.7468538  0.9937076  0.0000000  )
        47           C   tau(  47) = (  0.9968538  0.2437076  0.0000000  )
        48           C   tau(  48) = (  0.9968538  0.4937076  0.0000000  )
        49           C   tau(  49) = (  0.9968538  0.7437076  0.0000000  )
        50           C   tau(  50) = (  0.9968538  0.9937076  0.0000000  )

     number of k points=     4  Methfessel-Paxton smearing, width (Ry)=  0.0060
                       cart. coord. in units 2pi/alat
        k(    1) = (   0.0000000   0.0000000   0.0000000), wk =   0.2222222
        k(    2) = (   0.0000000   0.3849002   0.0000000), wk =   0.4444444
        k(    3) = (   0.3333333   0.5773503   0.0000000), wk =   0.4444444
        k(    4) = (  -0.3333333   0.1924501   0.0000000), wk =   0.8888889

                       cryst. coord.
        k(    1) = (   0.0000000   0.0000000   0.0000000), wk =   0.2222222
        k(    2) = (   0.0000000   0.3333333   0.0000000), wk =   0.4444444
        k(    3) = (   0.3333333   0.3333333   0.0000000), wk =   0.4444444
        k(    4) = (  -0.3333333   0.3333333   0.0000000), wk =   0.8888889

     Dense  grid:   388955 G-vectors     FFT dimensions: (  81,  81, 135)

     Dynamical RAM for                 wfc:      88.97 MB

     Dynamical RAM for     wfc (w. buffer):     444.85 MB

     Dynamical RAM for           str. fact:      17.80 MB

     Dynamical RAM for           local pot:       0.00 MB

     Dynamical RAM for          nlocal pot:     461.17 MB

     Dynamical RAM for                qrad:       3.88 MB

     Dynamical RAM for          rho,v,vnew:      38.08 MB

     Dynamical RAM for               rhoin:      12.69 MB

     Dynamical RAM for            rho*nmix:      94.96 MB

     Dynamical RAM for           G-vectors:      25.22 MB

     Dynamical RAM for          h,s,v(r/c):      10.55 MB

     Dynamical RAM for          <psi|beta>:       1.14 MB

     Dynamical RAM for                 psi:     355.88 MB

     Dynamical RAM for                hpsi:     355.88 MB

     Dynamical RAM for      wfcinit/wfcrot:    1200.93 MB

     Estimated static dynamical RAM per process >       1.13 GB

     Estimated max dynamical RAM per process >       2.30 GB

     Initial potential from superposition of free atoms
     Check: negative starting charge=   -0.005973

     starting charge  199.97158, renormalised to  200.00000

     negative rho (up, down):  5.974E-03 0.000E+00
     Starting wfcs are  800 randomized atomic wfcs

     total cpu time spent up to now is      778.9 secs

     Self-consistent Calculation

     iteration #  1     ecut=    30.00 Ry     beta= 0.70
     Davidson diagonalization with overlap
     ethr =  1.00E-02,  avg # of iterations =  2.0

     negative rho (up, down):  1.242E-03 0.000E+00

     total cpu time spent up to now is      961.3 secs

     total energy              =    -444.81059824 Ry
     Harris-Foulkes estimate   =    -451.57611801 Ry
     estimated scf accuracy    <      10.18943245 Ry

     iteration #  2     ecut=    30.00 Ry     beta= 0.70
     Davidson diagonalization with overlap
     ethr =  5.09E-03,  avg # of iterations =  5.5

     negative rho (up, down):  8.030E-04 0.000E+00

     total cpu time spent up to now is     1168.2 secs

     total energy              =    -442.99188451 Ry
     Harris-Foulkes estimate   =    -450.96497304 Ry
     estimated scf accuracy    <      17.49474671 Ry

     iteration #  3     ecut=    30.00 Ry     beta= 0.70
     Davidson diagonalization with overlap
     ethr =  5.09E-03,  avg # of iterations =  6.8

     negative rho (up, down):  4.487E-04 0.000E+00

     total cpu time spent up to now is     1402.3 secs

     total energy              =    -438.49051761 Ry
     Harris-Foulkes estimate   =    -454.57382149 Ry
     estimated scf accuracy    <     145.40365703 Ry

     iteration #  4     ecut=    30.00 Ry     beta= 0.70
     Davidson diagonalization with overlap
     ethr =  5.09E-03,  avg # of iterations =  5.5

     negative rho (up, down):  1.971E-04 0.000E+00

     total cpu time spent up to now is     1568.2 secs

     total energy              =    -448.34325147 Ry
     Harris-Foulkes estimate   =    -448.45701292 Ry
     estimated scf accuracy    <       0.29390504 Ry

     iteration #  5     ecut=    30.00 Ry     beta= 0.70
     Davidson diagonalization with overlap
     ethr =  1.47E-04,  avg # of iterations =  9.5

     negative rho (up, down):  7.012E-06 0.000E+00

     total cpu time spent up to now is     1847.6 secs

     total energy              =    -448.57092441 Ry
     Harris-Foulkes estimate   =    -448.64223348 Ry
     estimated scf accuracy    <       0.22585808 Ry

     iteration #  6     ecut=    30.00 Ry     beta= 0.70
     Davidson diagonalization with overlap
     ethr =  1.13E-04,  avg # of iterations =  2.0

     total cpu time spent up to now is     2070.7 secs

     total energy              =    -448.59320761 Ry
     Harris-Foulkes estimate   =    -448.60146004 Ry
     estimated scf accuracy    <       0.02068496 Ry

     iteration #  7     ecut=    30.00 Ry     beta= 0.70
     Davidson diagonalization with overlap
     ethr =  1.03E-05,  avg # of iterations =  9.2

     total cpu time spent up to now is     2421.7 secs

     total energy              =    -448.59503315 Ry
     Harris-Foulkes estimate   =    -448.60084882 Ry
     estimated scf accuracy    <       0.01410462 Ry

     iteration #  8     ecut=    30.00 Ry     beta= 0.70
     Davidson diagonalization with overlap
     ethr =  7.05E-06,  avg # of iterations =  5.2

     total cpu time spent up to now is     2684.4 secs

     total energy              =    -448.59763885 Ry
     Harris-Foulkes estimate   =    -448.59958508 Ry
     estimated scf accuracy    <       0.00617144 Ry

     iteration #  9     ecut=    30.00 Ry     beta= 0.70
     Davidson diagonalization with overlap
     ethr =  3.09E-06,  avg # of iterations =  3.2

     total cpu time spent up to now is     2919.6 secs

     total energy              =    -448.59861562 Ry
     Harris-Foulkes estimate   =    -448.59865451 Ry
     estimated scf accuracy    <       0.00011832 Ry

     iteration # 10     ecut=    30.00 Ry     beta= 0.70
     Davidson diagonalization with overlap
     ethr =  5.92E-08,  avg # of iterations =  3.5

     total cpu time spent up to now is     3259.2 secs

     End of self-consistent calculation

          k = 0.0000 0.0000 0.0000 ( 48515 PWs)   bands (ev):

   -15.6333 -14.6104 -14.6082 -14.6081 -14.6046 -14.6042 -14.6038 -12.8491
   -12.8481 -12.8419 -12.8417 -12.8406 -12.8405 -12.6142 -12.6141 -12.6132
   -12.1061 -10.9774 -10.9772 -10.9767 -10.9737 -10.9732 -10.9685  -9.6715
    -9.6712  -9.6712  -9.1663  -9.1637  -9.1536  -9.1527  -8.4318  -8.4316
    -8.4304  -8.4304  -8.4288  -8.4276  -6.9851  -6.9849  -6.9848  -6.9820
    -6.9816  -6.9799  -6.4208  -6.4208  -6.4183  -6.4181  -6.4177  -6.4171
    -6.2266  -6.2244  -6.2243  -6.2216  -6.2214  -6.2196  -5.6702  -4.6170
    -4.6170  -4.5463  -4.5436  -4.5435  -4.5405  -4.5399  -4.5397  -4.5389
    -4.5389  -4.5378  -4.3634  -3.8613  -3.8607  -3.8604  -3.8593  -3.8592
    -3.8572  -2.9589  -2.9588  -2.7105  -2.6987  -2.6869  -2.6867  -2.6866
    -2.6859  -2.6825  -2.6669  -2.6668  -2.6592  -2.6572  -2.6548  -2.6542
    -2.6451  -2.6214  -2.6212  -2.5983  -2.5980  -2.3979  -2.3979  -2.3976
    -1.4841  -1.4840  -0.9325  -0.9318  -0.9075  -0.9063  -0.6907   0.2252
     0.2257   0.2261   0.3144   0.3146   0.3180   0.7774   0.7798   0.7798
     1.0554   1.0590   1.0598   1.0899   1.2516   1.2516   1.2594   1.8000

     occupation numbers 
     1.0000   1.0000   1.0000   1.0000   1.0000   1.0000   1.0000   1.0000
     1.0000   1.0000   1.0000   1.0000   1.0000   1.0000   1.0000   1.0000
     1.0000   1.0000   1.0000   1.0000   1.0000   1.0000   1.0000   1.0000
     1.0000   1.0000   1.0000   1.0000   1.0000   1.0000   1.0000   1.0000
     1.0000   1.0000   1.0000   1.0000   1.0000   1.0000   1.0000   1.0000
     1.0000   1.0000   1.0000   1.0000   1.0000   1.0000   1.0000   1.0000
     1.0000   1.0000   1.0000   1.0000   1.0000   1.0000   1.0000   1.0000
     1.0000   1.0000   1.0000   1.0000   1.0000   1.0000   1.0000   1.0000
     1.0000   1.0000   1.0000   1.0000   1.0000   1.0000   1.0000   1.0000
     1.0000   1.0000   1.0000   1.0000   1.0000   1.0000   1.0000   1.0000
     1.0000   1.0000   1.0000   1.0000   1.0000   1.0000   1.0000   1.0000
     1.0000   1.0000   1.0000   1.0000   1.0000   1.0000   1.0000   1.0000
     1.0000   1.0000   0.6328   0.6256   0.3772   0.3647  -0.0003  -0.0000
    -0.0000  -0.0000  -0.0000  -0.0000  -0.0000  -0.0000  -0.0000  -0.0000
    -0.0000  -0.0000  -0.0000  -0.0000  -0.0000  -0.0000  -0.0000  -0.0000

          k = 0.0000 0.3849 0.0000 ( 48609 PWs)   bands (ev):

   -15.5165 -15.1695 -14.8293 -14.8285 -14.1741 -14.1732 -13.8648 -13.5603
   -13.5594 -13.0596 -12.7927 -12.7923 -12.6784 -12.6778 -12.2513 -12.2504
   -11.9751 -11.5875 -11.2114 -11.2093 -10.5217 -10.5198 -10.2910  -9.8915
    -9.8896  -9.4293  -9.4291  -9.0531  -9.0094  -9.0089  -8.8469  -8.8466
    -8.4123  -8.4109  -8.1120  -7.7452  -7.7364  -7.7361  -7.6884  -7.6874
    -7.0049  -7.0047  -6.9552  -6.9549  -6.4392  -6.4387  -5.8732  -5.8729
    -5.6323  -5.5566  -5.5514  -5.5470  -5.4494  -5.4491  -5.0872  -4.9712
    -4.9709  -4.7717  -4.7712  -4.7125  -4.5369  -4.4590  -4.4252  -4.4251
    -4.2825  -4.2824  -4.2156  -4.0860  -4.0855  -3.9330  -3.9324  -3.7581
    -3.4795  -3.4529  -3.4226  -3.4221  -3.4210  -3.4205  -3.1013  -3.0148
    -2.9896  -2.9884  -2.9229  -2.9024  -2.7274  -2.7265  -2.6190  -2.5917
    -2.5912  -2.4902  -2.4894  -2.2426  -2.1733  -2.1722  -2.1363  -1.9713
    -1.9712  -1.7389  -1.5741  -1.5730  -0.3200  -0.3199  -0.1738   0.1407
     0.1421   0.4984   0.6165   0.7666   0.8188   0.8205   1.1281   1.1393
     1.2009   1.2331   1.2385   1.2757   1.4914   1.4957   1.5824   1.5826

     occupation numbers 
     1.0000   1.0000   1.0000   1.0000   1.0000   1.0000   1.0000   1.0000
     1.0000   1.0000   1.0000   1.0000   1.0000   1.0000   1.0000   1.0000
     1.0000   1.0000   1.0000   1.0000   1.0000   1.0000   1.0000   1.0000
     1.0000   1.0000   1.0000   1.0000   1.0000   1.0000   1.0000   1.0000
     1.0000   1.0000   1.0000   1.0000   1.0000   1.0000   1.0000   1.0000
     1.0000   1.0000   1.0000   1.0000   1.0000   1.0000   1.0000   1.0000
     1.0000   1.0000   1.0000   1.0000   1.0000   1.0000   1.0000   1.0000
     1.0000   1.0000   1.0000   1.0000   1.0000   1.0000   1.0000   1.0000
     1.0000   1.0000   1.0000   1.0000   1.0000   1.0000   1.0000   1.0000
     1.0000   1.0000   1.0000   1.0000   1.0000   1.0000   1.0000   1.0000
     1.0000   1.0000   1.0000   1.0000   1.0000   1.0000   1.0000   1.0000
     1.0000   1.0000   1.0000   1.0000   1.0000   1.0000   1.0000   1.0000
     1.0000   1.0000   1.0000   1.0000  -0.0000  -0.0000  -0.0000  -0.0000
    -0.0000  -0.0000  -0.0000  -0.0000  -0.0000  -0.0000  -0.0000  -0.0000
    -0.0000  -0.0000  -0.0000  -0.0000  -0.0000  -0.0000  -0.0000  -0.0000

          k = 0.3333 0.5774 0.0000 ( 48552 PWs)   bands (ev):

   -15.2879 -15.2837 -15.2822 -14.2790 -14.2790 -14.2783 -13.3864 -13.3846
   -13.3837 -13.3797 -13.3789 -13.3783 -12.3847 -12.3787 -12.3776 -12.0175
   -11.7178 -11.7167 -11.7114 -10.6087 -10.6079 -10.6074 -10.0330 -10.0292
   -10.0289  -9.3882  -9.3867  -9.3833  -8.9738  -8.4125  -8.4124  -8.4104
    -8.4020  -8.3994  -8.3987  -8.3714  -8.3712  -8.3695  -7.4744  -7.4556
    -7.4522  -7.4521  -6.5721  -6.5721  -6.5718  -6.0104  -6.0102  -6.0077
    -5.4221  -5.4179  -5.4170  -5.0532  -5.0519  -5.0486  -4.7866  -4.7865
    -4.7845  -4.7831  -4.7820  -4.7816  -4.7454  -4.7449  -4.7447  -4.2892
    -4.2865  -4.2862  -4.1969  -4.1968  -4.1965  -3.8098  -3.8076  -3.8037
    -3.5907  -3.5886  -3.5842  -3.4222  -3.4208  -3.4185  -3.2682  -3.2647
    -3.2635  -3.2019  -3.2014  -3.1995  -2.9866  -2.9858  -2.9844  -2.2827
    -2.2819  -2.2807  -2.2736  -2.2601  -2.2327  -2.1342  -2.0980  -2.0861
    -1.7920  -1.7838  -1.7832  -1.6697  -0.3290  -0.3046  -0.2934   0.2523
     0.3285   0.4245   0.9520   0.9906   1.0910   1.1593   1.2717   1.2735
     1.2742   1.3777   1.3817   1.3848   1.3883   1.3889   1.3897   2.0794

     occupation numbers 
     1.0000   1.0000   1.0000   1.0000   1.0000   1.0000   1.0000   1.0000
     1.0000   1.0000   1.0000   1.0000   1.0000   1.0000   1.0000   1.0000
     1.0000   1.0000   1.0000   1.0000   1.0000   1.0000   1.0000   1.0000
     1.0000   1.0000   1.0000   1.0000   1.0000   1.0000   1.0000   1.0000
     1.0000   1.0000   1.0000   1.0000   1.0000   1.0000   1.0000   1.0000
     1.0000   1.0000   1.0000   1.0000   1.0000   1.0000   1.0000   1.0000
     1.0000   1.0000   1.0000   1.0000   1.0000   1.0000   1.0000   1.0000
     1.0000   1.0000   1.0000   1.0000   1.0000   1.0000   1.0000   1.0000
     1.0000   1.0000   1.0000   1.0000   1.0000   1.0000   1.0000   1.0000
     1.0000   1.0000   1.0000   1.0000   1.0000   1.0000   1.0000   1.0000
     1.0000   1.0000   1.0000   1.0000   1.0000   1.0000   1.0000   1.0000
     1.0000   1.0000   1.0000   1.0000   1.0000   1.0000   1.0000   1.0000
     1.0000   1.0000   1.0000   1.0000  -0.0000  -0.0000  -0.0000  -0.0000
    -0.0000  -0.0000  -0.0000  -0.0000  -0.0000  -0.0000  -0.0000  -0.0000
    -0.0000  -0.0000  -0.0000  -0.0000  -0.0000  -0.0000  -0.0000  -0.0000

          k =-0.3333 0.1925 0.0000 ( 48609 PWs)   bands (ev):

   -15.5165 -15.1695 -14.8292 -14.8286 -14.1740 -14.1733 -13.8648 -13.5602
   -13.5595 -13.0596 -12.7927 -12.7923 -12.6784 -12.6777 -12.2512 -12.2505
   -11.9751 -11.5875 -11.2110 -11.2097 -10.5214 -10.5201 -10.2910  -9.8912
    -9.8899  -9.4293  -9.4291  -9.0531  -9.0094  -9.0090  -8.8468  -8.8466
    -8.4121  -8.4112  -8.1121  -7.7452  -7.7364  -7.7361  -7.6882  -7.6875
    -7.0049  -7.0047  -6.9551  -6.9549  -6.4391  -6.4387  -5.8732  -5.8730
    -5.6323  -5.5566  -5.5513  -5.5470  -5.4494  -5.4491  -5.0872  -4.9712
    -4.9710  -4.7717  -4.7713  -4.7125  -4.5369  -4.4589  -4.4252  -4.4251
    -4.2825  -4.2824  -4.2155  -4.0859  -4.0856  -3.9330  -3.9325  -3.7581
    -3.4795  -3.4529  -3.4225  -3.4222  -3.4210  -3.4206  -3.1012  -3.0148
    -2.9894  -2.9887  -2.9229  -2.9023  -2.7272  -2.7267  -2.6190  -2.5916
    -2.5913  -2.4903  -2.4894  -2.2426  -2.1731  -2.1724  -2.1363  -1.9714
    -1.9711  -1.7388  -1.5739  -1.5732  -0.3201  -0.3198  -0.1739   0.1410
     0.1418   0.4984   0.6165   0.7666   0.8189   0.8203   1.1279   1.1393
     1.2009   1.2341   1.2379   1.2757   1.4923   1.4947   1.5818   1.5832

     occupation numbers 
     1.0000   1.0000   1.0000   1.0000   1.0000   1.0000   1.0000   1.0000
     1.0000   1.0000   1.0000   1.0000   1.0000   1.0000   1.0000   1.0000
     1.0000   1.0000   1.0000   1.0000   1.0000   1.0000   1.0000   1.0000
     1.0000   1.0000   1.0000   1.0000   1.0000   1.0000   1.0000   1.0000
     1.0000   1.0000   1.0000   1.0000   1.0000   1.0000   1.0000   1.0000
     1.0000   1.0000   1.0000   1.0000   1.0000   1.0000   1.0000   1.0000
     1.0000   1.0000   1.0000   1.0000   1.0000   1.0000   1.0000   1.0000
     1.0000   1.0000   1.0000   1.0000   1.0000   1.0000   1.0000   1.0000
     1.0000   1.0000   1.0000   1.0000   1.0000   1.0000   1.0000   1.0000
     1.0000   1.0000   1.0000   1.0000   1.0000   1.0000   1.0000   1.0000
     1.0000   1.0000   1.0000   1.0000   1.0000   1.0000   1.0000   1.0000
     1.0000   1.0000   1.0000   1.0000   1.0000   1.0000   1.0000   1.0000
     1.0000   1.0000   1.0000   1.0000  -0.0000  -0.0000  -0.0000  -0.0000
    -0.0000  -0.0000  -0.0000  -0.0000  -0.0000  -0.0000  -0.0000  -0.0000
    -0.0000  -0.0000  -0.0000  -0.0000  -0.0000  -0.0000  -0.0000  -0.0000

     the Fermi energy is    -0.9195 ev

!    total energy              =    -448.59860837 Ry
     Harris-Foulkes estimate   =    -448.59868446 Ry
     estimated scf accuracy    <       0.00008916 Ry

     The total energy is the sum of the following terms:

     one-electron contribution =   -2862.99066990 Ry
     hartree contribution      =    1469.43512572 Ry
     xc contribution           =    -135.69024165 Ry
     ewald contribution        =    1081.09100727 Ry
     Dispersion Correction     =      -0.44313161 Ry
     smearing contrib. (-TS)   =      -0.00069820 Ry

     convergence has been achieved in  10 iterations

     Writing output data file Ge+SiC_III__4.0.save/

     init_run     :    775.88s CPU    778.57s WALL (       1 calls)
     electrons    :   2471.06s CPU   2480.36s WALL (       1 calls)

     Called by init_run:
     wfcinit      :    772.61s CPU    775.20s WALL (       1 calls)
     wfcinit:atom :      1.54s CPU      2.46s WALL (       4 calls)
     wfcinit:wfcr :    759.15s CPU    760.34s WALL (       4 calls)
     potinit      :      1.50s CPU      1.56s WALL (       1 calls)
     hinit0       :      1.52s CPU      1.53s WALL (       1 calls)

     Called by electrons:
     c_bands      :   2316.67s CPU   2325.76s WALL (      10 calls)
     sum_band     :    145.00s CPU    145.13s WALL (      10 calls)
     v_of_rho     :      8.22s CPU      8.26s WALL (      11 calls)
     v_h          :      0.55s CPU      0.56s WALL (      11 calls)
     v_xc         :      7.67s CPU      7.71s WALL (      11 calls)
     mix_rho      :      1.41s CPU      1.46s WALL (      10 calls)

     Called by c_bands:
     init_us_2    :     14.75s CPU     14.95s WALL (      84 calls)
     cegterg      :   2267.83s CPU   2276.82s WALL (      40 calls)

     Called by sum_band:

     Called by *egterg:
     h_psi        :   2035.48s CPU   2040.10s WALL (     254 calls)
     g_psi        :      3.38s CPU      3.38s WALL (     210 calls)
     cdiaghg      :     39.44s CPU     39.45s WALL (     250 calls)
     cegterg:over :    284.52s CPU    284.63s WALL (     210 calls)
     cegterg:upda :    178.99s CPU    181.70s WALL (     210 calls)
     cegterg:last :     80.54s CPU     80.58s WALL (      40 calls)

     Called by h_psi:
     h_psi:pot    :   2031.60s CPU   2032.57s WALL (     254 calls)
     h_psi:calbec :    599.31s CPU    599.40s WALL (     254 calls)
     vloc_psi     :    892.53s CPU    893.33s WALL (     254 calls)
     add_vuspsi   :    539.75s CPU    539.83s WALL (     254 calls)

     General routines
     calbec       :    599.31s CPU    599.40s WALL (     254 calls)
     fft          :      3.59s CPU      3.59s WALL (     110 calls)
     ffts         :      0.33s CPU      0.33s WALL (      10 calls)
     fftw         :    867.25s CPU    867.77s WALL (   38346 calls)

     Parallel routines

     PWSCF        : 54m 7.53s CPU    54m19.89s WALL


   This run was terminated on:  14:42:11  18Apr2020            

=------------------------------------------------------------------------------=
   JOB DONE.
=------------------------------------------------------------------------------=
