
     Program PWSCF v.6.3 starts on 18Apr2020 at 14:42:12 

     This program is part of the open-source Quantum ESPRESSO suite
     for quantum simulation of materials; please cite
         "P. Giannozzi et al., J. Phys.:Condens. Matter 21 395502 (2009);
         "P. Giannozzi et al., J. Phys.:Condens. Matter 29 465901 (2017);
          URL http://www.quantum-espresso.org", 
     in publications or presentations arising from this work. More details at
     http://www.quantum-espresso.org/quote

     Parallel version (MPI), running on     1 processors

     MPI processes distributed on     1 nodes
     Reading input from /home/nano3/Desktop/RAYID/Ge+SiC/Ge+SiC_III/Ge+SiC_III__4.0.band_nscf.in

     Current dimensions of program PWSCF are:
     Max number of different atomic species (ntypx) = 10
     Max number of k-points (npk) =  40000
     Max angular momentum in pseudopotentials (lmaxx) =  3

     Atomic positions and unit cell read from directory:
     /home/nano3/Desktop/RAYID/Ge+SiC/Ge+SiC_III/work/Ge+SiC_III__4.0.save/


     IMPORTANT: XC functional enforced from input :
     Exchange-correlation      = PBE ( 1  4  3  4 0 0)
     Any further DFT definition will be discarded
     Please, verify this is what you really want

               file Ge.pbe-mt_fhi.UPF: wavefunction(s)  4d 4f renormalized
               file C.pbe-mt_fhi.UPF: wavefunction(s)  4f renormalized
               file Si.pbe-mt_fhi.UPF: wavefunction(s)  4f renormalized

     -------------------------------------------------
     Parameters for Dispersion (Grimme-D2) Correction:
     -------------------------------------------------
       atom      VdW radius       C_6     

        Ge         3.264        593.221
        C          2.744         60.710
        Si         3.243        320.200

     Subspace diagonalization in iterative solution of the eigenvalue problem:
     a serial algorithm will be used


     G-vector sticks info
     --------------------
     sticks:   dense  smooth     PW     G-vecs:    dense   smooth      PW
     Sum        4429    4429   1177               388955   388955   53541



     bravais-lattice index     =            4
     lattice parameter (alat)  =      23.1302  a.u.
     unit-cell volume          =   17511.3678 (a.u.)^3
     number of atoms/cell      =           50
     number of atomic types    =            3
     number of electrons       =       200.00
     number of Kohn-Sham states=          120
     kinetic-energy cutoff     =      30.0000  Ry
     charge density cutoff     =     120.0000  Ry
     Exchange-correlation      = PBE ( 1  4  3  4 0 0)

     celldm(1)=  23.130248  celldm(2)=   0.000000  celldm(3)=   1.633987
     celldm(4)=   0.000000  celldm(5)=   0.000000  celldm(6)=   0.000000

     crystal axes: (cart. coord. in units of alat)
               a(1) = (   1.000000   0.000000   0.000000 )  
               a(2) = (  -0.500000   0.866025   0.000000 )  
               a(3) = (   0.000000   0.000000   1.633987 )  

     reciprocal axes: (cart. coord. in units 2 pi/alat)
               b(1) = (  1.000000  0.577350 -0.000000 )  
               b(2) = (  0.000000  1.154701  0.000000 )  
               b(3) = (  0.000000 -0.000000  0.612000 )  


     PseudoPot. # 1 for Ge read from file:
     /home/nano3/Desktop/RAYID/qe-6.3/bin/pseudo/Ge.pbe-mt_fhi.UPF
     MD5 check sum: b08ff19c3d362044f6e29226b459d86a
     Pseudo is Norm-conserving, Zval =  4.0
     Generated using FHI98PP, converted with fhi2upf.x v.5.0.2
     Using radial grid of  529 points,  3 beta functions with: 
                l(1) =   1
                l(2) =   2
                l(3) =   3

     PseudoPot. # 2 for C  read from file:
     /home/nano3/Desktop/RAYID/qe-6.3/bin/pseudo/C.pbe-mt_fhi.UPF
     MD5 check sum: 058ca341f9d6d5327d9962fd88a91b65
     Pseudo is Norm-conserving, Zval =  4.0
     Generated using FHI98PP, converted with fhi2upf.x v.5.0.2
     Using radial grid of  461 points,  3 beta functions with: 
                l(1) =   0
                l(2) =   1
                l(3) =   3

     PseudoPot. # 3 for Si read from file:
     /home/nano3/Desktop/RAYID/qe-6.3/bin/pseudo/Si.pbe-mt_fhi.UPF
     MD5 check sum: 259057c2adf9952f9ced37ae3d9e311d
     Pseudo is Norm-conserving, Zval =  4.0
     Generated using FHI98PP, converted with fhi2upf.x v.5.0.2
     Using radial grid of  495 points,  3 beta functions with: 
                l(1) =   0
                l(2) =   1
                l(3) =   3

     atomic species   valence    mass     pseudopotential
        Ge             4.00    72.59000     Ge( 1.00)
        C              4.00    12.01070     C ( 1.00)
        Si             4.00    28.08550     Si( 1.00)

      2 Sym. Ops. (no inversion) found


                                    s                        frac. trans.

      isym =  1     identity                                     

 cryst.   s( 1) = (     1          0          0      )
                  (     0          1          0      )
                  (     0          0          1      )

 cart.    s( 1) = (  1.0000000 -0.0000000  0.0000000 )
                  (  0.0000000  1.0000000  0.0000000 )
                  (  0.0000000  0.0000000  1.0000000 )


      isym =  2     inv. 180 deg rotation - cart. axis [1,0,0]   

 cryst.   s( 2) = (    -1          0          0      )
                  (     1          1          0      )
                  (     0          0          1      )

 cart.    s( 2) = ( -1.0000000 -0.0000000  0.0000000 )
                  (  0.0000000  1.0000000  0.0000000 )
                  (  0.0000000  0.0000000  1.0000000 )


     point group C_s (m)    
     there are  2 classes
     the character table:

       E     s    
A'     1.00  1.00
A''    1.00 -1.00

     the symmetry operations in each class and the name of the first element:

     E        1
          identity                                               
     s        2
          inv. 180 deg rotation - cart. axis [1,0,0]             

   Cartesian axes

     site n.     atom                  positions (alat units)
         1           Ge  tau(   1) = (   0.0000000   0.1847712   0.3816993  )
         2           Ge  tau(   2) = (  -0.1666667   0.4734464   0.3816993  )
         3           Ge  tau(   3) = (  -0.3333333   0.7621215   0.3816993  )
         4           Ge  tau(   4) = (   0.3333333   0.1847712   0.3816993  )
         5           Ge  tau(   5) = (   0.1666667   0.2809954   0.3267974  )
         6           Ge  tau(   6) = (   0.1666667   0.4734464   0.3816993  )
         7           Ge  tau(   7) = (   0.0000000   0.5696705   0.3267974  )
         8           Ge  tau(   8) = (   0.0000000   0.7621215   0.3816993  )
         9           Ge  tau(   9) = (  -0.1666667   0.8583457   0.3267974  )
        10           Ge  tau(  10) = (   0.6666667   0.1847712   0.3816993  )
        11           Ge  tau(  11) = (   0.5000000   0.2809954   0.3267974  )
        12           Ge  tau(  12) = (   0.5000000   0.4734464   0.3816993  )
        13           Ge  tau(  13) = (   0.3333333   0.5696705   0.3267974  )
        14           Ge  tau(  14) = (   0.3333333   0.7621215   0.3816993  )
        15           Ge  tau(  15) = (   0.1666667   0.8583457   0.3267974  )
        16           Ge  tau(  16) = (   0.8333333   0.2809954   0.3267974  )
        17           Ge  tau(  17) = (   0.6666667   0.5696705   0.3267974  )
        18           Ge  tau(  18) = (   0.5000000   0.8583457   0.3267974  )
        19           Si  tau(  19) = (   0.0000000   0.1388889   0.0000000  )
        20           Si  tau(  20) = (  -0.1250000   0.3553952   0.0000000  )
        21           Si  tau(  21) = (  -0.2500000   0.5719016   0.0000000  )
        22           Si  tau(  22) = (  -0.3750000   0.7884079   0.0000000  )
        23           Si  tau(  23) = (   0.2500000   0.1388889   0.0000000  )
        24           C   tau(  24) = (   0.1250000   0.2110570   0.0000000  )
        25           Si  tau(  25) = (   0.1250000   0.3553952   0.0000000  )
        26           C   tau(  26) = (   0.0000000   0.4275634   0.0000000  )
        27           Si  tau(  27) = (   0.0000000   0.5719016   0.0000000  )
        28           C   tau(  28) = (  -0.1250000   0.6440697   0.0000000  )
        29           Si  tau(  29) = (  -0.1250000   0.7884079   0.0000000  )
        30           C   tau(  30) = (  -0.2500000   0.8605761   0.0000000  )
        31           Si  tau(  31) = (   0.5000000   0.1388889   0.0000000  )
        32           C   tau(  32) = (   0.3750000   0.2110570   0.0000000  )
        33           Si  tau(  33) = (   0.3750000   0.3553952   0.0000000  )
        34           C   tau(  34) = (   0.2500000   0.4275634   0.0000000  )
        35           Si  tau(  35) = (   0.2500000   0.5719016   0.0000000  )
        36           C   tau(  36) = (   0.1250000   0.6440697   0.0000000  )
        37           Si  tau(  37) = (   0.1250000   0.7884079   0.0000000  )
        38           C   tau(  38) = (   0.0000000   0.8605761   0.0000000  )
        39           Si  tau(  39) = (   0.7500000   0.1388889   0.0000000  )
        40           C   tau(  40) = (   0.6250000   0.2110570   0.0000000  )
        41           Si  tau(  41) = (   0.6250000   0.3553952   0.0000000  )
        42           C   tau(  42) = (   0.5000000   0.4275634   0.0000000  )
        43           Si  tau(  43) = (   0.5000000   0.5719016   0.0000000  )
        44           C   tau(  44) = (   0.3750000   0.6440697   0.0000000  )
        45           Si  tau(  45) = (   0.3750000   0.7884079   0.0000000  )
        46           C   tau(  46) = (   0.2500000   0.8605761   0.0000000  )
        47           C   tau(  47) = (   0.8750000   0.2110570   0.0000000  )
        48           C   tau(  48) = (   0.7500000   0.4275634   0.0000000  )
        49           C   tau(  49) = (   0.6250000   0.6440697   0.0000000  )
        50           C   tau(  50) = (   0.5000000   0.8605761   0.0000000  )

   Crystallographic axes

     site n.     atom                  positions (cryst. coord.)
         1           Ge  tau(   1) = (  0.1066777  0.2133555  0.2336000  )
         2           Ge  tau(   2) = (  0.1066777  0.5466888  0.2336000  )
         3           Ge  tau(   3) = (  0.1066777  0.8800221  0.2336000  )
         4           Ge  tau(   4) = (  0.4400111  0.2133555  0.2336000  )
         5           Ge  tau(   5) = (  0.3288994  0.3244655  0.2000000  )
         6           Ge  tau(   6) = (  0.4400111  0.5466888  0.2336000  )
         7           Ge  tau(   7) = (  0.3288994  0.6577989  0.2000000  )
         8           Ge  tau(   8) = (  0.4400111  0.8800221  0.2336000  )
         9           Ge  tau(   9) = (  0.3288994  0.9911322  0.2000000  )
        10           Ge  tau(  10) = (  0.7733444  0.2133555  0.2336000  )
        11           Ge  tau(  11) = (  0.6622328  0.3244655  0.2000000  )
        12           Ge  tau(  12) = (  0.7733444  0.5466888  0.2336000  )
        13           Ge  tau(  13) = (  0.6622328  0.6577989  0.2000000  )
        14           Ge  tau(  14) = (  0.7733444  0.8800221  0.2336000  )
        15           Ge  tau(  15) = (  0.6622328  0.9911322  0.2000000  )
        16           Ge  tau(  16) = (  0.9955661  0.3244655  0.2000000  )
        17           Ge  tau(  17) = (  0.9955661  0.6577989  0.2000000  )
        18           Ge  tau(  18) = (  0.9955661  0.9911322  0.2000000  )
        19           Si  tau(  19) = (  0.0801875  0.1603751  0.0000000  )
        20           Si  tau(  20) = (  0.0801875  0.4103751  0.0000000  )
        21           Si  tau(  21) = (  0.0801875  0.6603751  0.0000000  )
        22           Si  tau(  22) = (  0.0801875  0.9103751  0.0000000  )
        23           Si  tau(  23) = (  0.3301875  0.1603751  0.0000000  )
        24           C   tau(  24) = (  0.2468538  0.2437076  0.0000000  )
        25           Si  tau(  25) = (  0.3301875  0.4103751  0.0000000  )
        26           C   tau(  26) = (  0.2468538  0.4937076  0.0000000  )
        27           Si  tau(  27) = (  0.3301875  0.6603751  0.0000000  )
        28           C   tau(  28) = (  0.2468538  0.7437076  0.0000000  )
        29           Si  tau(  29) = (  0.3301875  0.9103751  0.0000000  )
        30           C   tau(  30) = (  0.2468538  0.9937076  0.0000000  )
        31           Si  tau(  31) = (  0.5801875  0.1603751  0.0000000  )
        32           C   tau(  32) = (  0.4968538  0.2437076  0.0000000  )
        33           Si  tau(  33) = (  0.5801875  0.4103751  0.0000000  )
        34           C   tau(  34) = (  0.4968538  0.4937076  0.0000000  )
        35           Si  tau(  35) = (  0.5801875  0.6603751  0.0000000  )
        36           C   tau(  36) = (  0.4968538  0.7437076  0.0000000  )
        37           Si  tau(  37) = (  0.5801875  0.9103751  0.0000000  )
        38           C   tau(  38) = (  0.4968538  0.9937076  0.0000000  )
        39           Si  tau(  39) = (  0.8301875  0.1603751  0.0000000  )
        40           C   tau(  40) = (  0.7468538  0.2437076  0.0000000  )
        41           Si  tau(  41) = (  0.8301875  0.4103751  0.0000000  )
        42           C   tau(  42) = (  0.7468538  0.4937076  0.0000000  )
        43           Si  tau(  43) = (  0.8301875  0.6603751  0.0000000  )
        44           C   tau(  44) = (  0.7468538  0.7437076  0.0000000  )
        45           Si  tau(  45) = (  0.8301875  0.9103751  0.0000000  )
        46           C   tau(  46) = (  0.7468538  0.9937076  0.0000000  )
        47           C   tau(  47) = (  0.9968538  0.2437076  0.0000000  )
        48           C   tau(  48) = (  0.9968538  0.4937076  0.0000000  )
        49           C   tau(  49) = (  0.9968538  0.7437076  0.0000000  )
        50           C   tau(  50) = (  0.9968538  0.9937076  0.0000000  )

     number of k points=    61  Methfessel-Paxton smearing, width (Ry)=  0.0060
                       cart. coord. in units 2pi/alat
        k(    1) = (   0.0000000   0.5773503   0.0000000), wk =   0.0327869
        k(    2) = (   0.0166667   0.5773503   0.0000000), wk =   0.0327869
        k(    3) = (   0.0333333   0.5773503   0.0000000), wk =   0.0327869
        k(    4) = (   0.0500000   0.5773503   0.0000000), wk =   0.0327869
        k(    5) = (   0.0666667   0.5773503   0.0000000), wk =   0.0327869
        k(    6) = (   0.0833333   0.5773503   0.0000000), wk =   0.0327869
        k(    7) = (   0.1000000   0.5773503   0.0000000), wk =   0.0327869
        k(    8) = (   0.1166667   0.5773502   0.0000000), wk =   0.0327869
        k(    9) = (   0.1333333   0.5773502   0.0000000), wk =   0.0327869
        k(   10) = (   0.1500000   0.5773502   0.0000000), wk =   0.0327869
        k(   11) = (   0.1666666   0.5773502   0.0000000), wk =   0.0327869
        k(   12) = (   0.1833333   0.5773502   0.0000000), wk =   0.0327869
        k(   13) = (   0.2000000   0.5773502   0.0000000), wk =   0.0327869
        k(   14) = (   0.2166666   0.5773502   0.0000000), wk =   0.0327869
        k(   15) = (   0.2333333   0.5773502   0.0000000), wk =   0.0327869
        k(   16) = (   0.2500000   0.5773502   0.0000000), wk =   0.0327869
        k(   17) = (   0.2666666   0.5773502   0.0000000), wk =   0.0327869
        k(   18) = (   0.2833333   0.5773502   0.0000000), wk =   0.0327869
        k(   19) = (   0.3000000   0.5773502   0.0000000), wk =   0.0327869
        k(   20) = (   0.3166666   0.5773502   0.0000000), wk =   0.0327869
        k(   21) = (   0.3333333   0.5773502   0.0000000), wk =   0.0327869
        k(   22) = (   0.3166666   0.5484827   0.0000000), wk =   0.0327869
        k(   23) = (   0.3000000   0.5196152   0.0000000), wk =   0.0327869
        k(   24) = (   0.2833333   0.4907477   0.0000000), wk =   0.0327869
        k(   25) = (   0.2666666   0.4618802   0.0000000), wk =   0.0327869
        k(   26) = (   0.2500000   0.4330127   0.0000000), wk =   0.0327869
        k(   27) = (   0.2333333   0.4041451   0.0000000), wk =   0.0327869
        k(   28) = (   0.2166666   0.3752776   0.0000000), wk =   0.0327869
        k(   29) = (   0.2000000   0.3464101   0.0000000), wk =   0.0327869
        k(   30) = (   0.1833333   0.3175426   0.0000000), wk =   0.0327869
        k(   31) = (   0.1666666   0.2886751   0.0000000), wk =   0.0327869
        k(   32) = (   0.1500000   0.2598076   0.0000000), wk =   0.0327869
        k(   33) = (   0.1333333   0.2309401   0.0000000), wk =   0.0327869
        k(   34) = (   0.1166667   0.2020726   0.0000000), wk =   0.0327869
        k(   35) = (   0.1000000   0.1732051   0.0000000), wk =   0.0327869
        k(   36) = (   0.0833333   0.1443376   0.0000000), wk =   0.0327869
        k(   37) = (   0.0666667   0.1154700   0.0000000), wk =   0.0327869
        k(   38) = (   0.0500000   0.0866025   0.0000000), wk =   0.0327869
        k(   39) = (   0.0333333   0.0577350   0.0000000), wk =   0.0327869
        k(   40) = (   0.0166667   0.0288675   0.0000000), wk =   0.0327869
        k(   41) = (   0.0000000   0.0000000   0.0000000), wk =   0.0327869
        k(   42) = (   0.0000000   0.0288675   0.0000000), wk =   0.0327869
        k(   43) = (   0.0000000   0.0577350   0.0000000), wk =   0.0327869
        k(   44) = (   0.0000000   0.0866025   0.0000000), wk =   0.0327869
        k(   45) = (   0.0000000   0.1154701   0.0000000), wk =   0.0327869
        k(   46) = (   0.0000000   0.1443376   0.0000000), wk =   0.0327869
        k(   47) = (   0.0000000   0.1732051   0.0000000), wk =   0.0327869
        k(   48) = (   0.0000000   0.2020726   0.0000000), wk =   0.0327869
        k(   49) = (   0.0000000   0.2309401   0.0000000), wk =   0.0327869
        k(   50) = (   0.0000000   0.2598076   0.0000000), wk =   0.0327869
        k(   51) = (   0.0000000   0.2886751   0.0000000), wk =   0.0327869
        k(   52) = (   0.0000000   0.3175426   0.0000000), wk =   0.0327869
        k(   53) = (   0.0000000   0.3464102   0.0000000), wk =   0.0327869
        k(   54) = (   0.0000000   0.3752777   0.0000000), wk =   0.0327869
        k(   55) = (   0.0000000   0.4041452   0.0000000), wk =   0.0327869
        k(   56) = (   0.0000000   0.4330127   0.0000000), wk =   0.0327869
        k(   57) = (   0.0000000   0.4618802   0.0000000), wk =   0.0327869
        k(   58) = (   0.0000000   0.4907477   0.0000000), wk =   0.0327869
        k(   59) = (   0.0000000   0.5196152   0.0000000), wk =   0.0327869
        k(   60) = (   0.0000000   0.5484828   0.0000000), wk =   0.0327869
        k(   61) = (   0.0000000   0.5773503   0.0000000), wk =   0.0327869

                       cryst. coord.
        k(    1) = (   0.0000000   0.5000000   0.0000000), wk =   0.0327869
        k(    2) = (   0.0166667   0.4916667   0.0000000), wk =   0.0327869
        k(    3) = (   0.0333333   0.4833333   0.0000000), wk =   0.0327869
        k(    4) = (   0.0500000   0.4750000   0.0000000), wk =   0.0327869
        k(    5) = (   0.0666667   0.4666667   0.0000000), wk =   0.0327869
        k(    6) = (   0.0833333   0.4583333   0.0000000), wk =   0.0327869
        k(    7) = (   0.1000000   0.4500000   0.0000000), wk =   0.0327869
        k(    8) = (   0.1166667   0.4416667   0.0000000), wk =   0.0327869
        k(    9) = (   0.1333333   0.4333333   0.0000000), wk =   0.0327869
        k(   10) = (   0.1500000   0.4250000   0.0000000), wk =   0.0327869
        k(   11) = (   0.1666666   0.4166667   0.0000000), wk =   0.0327869
        k(   12) = (   0.1833333   0.4083333   0.0000000), wk =   0.0327869
        k(   13) = (   0.2000000   0.4000000   0.0000000), wk =   0.0327869
        k(   14) = (   0.2166666   0.3916666   0.0000000), wk =   0.0327869
        k(   15) = (   0.2333333   0.3833333   0.0000000), wk =   0.0327869
        k(   16) = (   0.2500000   0.3750000   0.0000000), wk =   0.0327869
        k(   17) = (   0.2666666   0.3666666   0.0000000), wk =   0.0327869
        k(   18) = (   0.2833333   0.3583333   0.0000000), wk =   0.0327869
        k(   19) = (   0.3000000   0.3500000   0.0000000), wk =   0.0327869
        k(   20) = (   0.3166666   0.3416666   0.0000000), wk =   0.0327869
        k(   21) = (   0.3333333   0.3333333   0.0000000), wk =   0.0327869
        k(   22) = (   0.3166666   0.3166666   0.0000000), wk =   0.0327869
        k(   23) = (   0.3000000   0.3000000   0.0000000), wk =   0.0327869
        k(   24) = (   0.2833333   0.2833333   0.0000000), wk =   0.0327869
        k(   25) = (   0.2666666   0.2666666   0.0000000), wk =   0.0327869
        k(   26) = (   0.2500000   0.2500000   0.0000000), wk =   0.0327869
        k(   27) = (   0.2333333   0.2333333   0.0000000), wk =   0.0327869
        k(   28) = (   0.2166666   0.2166666   0.0000000), wk =   0.0327869
        k(   29) = (   0.2000000   0.2000000   0.0000000), wk =   0.0327869
        k(   30) = (   0.1833333   0.1833333   0.0000000), wk =   0.0327869
        k(   31) = (   0.1666666   0.1666667   0.0000000), wk =   0.0327869
        k(   32) = (   0.1500000   0.1500000   0.0000000), wk =   0.0327869
        k(   33) = (   0.1333333   0.1333333   0.0000000), wk =   0.0327869
        k(   34) = (   0.1166667   0.1166667   0.0000000), wk =   0.0327869
        k(   35) = (   0.1000000   0.1000000   0.0000000), wk =   0.0327869
        k(   36) = (   0.0833333   0.0833333   0.0000000), wk =   0.0327869
        k(   37) = (   0.0666667   0.0666667   0.0000000), wk =   0.0327869
        k(   38) = (   0.0500000   0.0500000   0.0000000), wk =   0.0327869
        k(   39) = (   0.0333333   0.0333333   0.0000000), wk =   0.0327869
        k(   40) = (   0.0166667   0.0166667   0.0000000), wk =   0.0327869
        k(   41) = (   0.0000000   0.0000000   0.0000000), wk =   0.0327869
        k(   42) = (   0.0000000   0.0250000   0.0000000), wk =   0.0327869
        k(   43) = (   0.0000000   0.0500000   0.0000000), wk =   0.0327869
        k(   44) = (   0.0000000   0.0750000   0.0000000), wk =   0.0327869
        k(   45) = (   0.0000000   0.1000000   0.0000000), wk =   0.0327869
        k(   46) = (   0.0000000   0.1250000   0.0000000), wk =   0.0327869
        k(   47) = (   0.0000000   0.1500000   0.0000000), wk =   0.0327869
        k(   48) = (   0.0000000   0.1750000   0.0000000), wk =   0.0327869
        k(   49) = (   0.0000000   0.2000000   0.0000000), wk =   0.0327869
        k(   50) = (   0.0000000   0.2250000   0.0000000), wk =   0.0327869
        k(   51) = (   0.0000000   0.2500000   0.0000000), wk =   0.0327869
        k(   52) = (   0.0000000   0.2750000   0.0000000), wk =   0.0327869
        k(   53) = (   0.0000000   0.3000000   0.0000000), wk =   0.0327869
        k(   54) = (   0.0000000   0.3250000   0.0000000), wk =   0.0327869
        k(   55) = (   0.0000000   0.3500000   0.0000000), wk =   0.0327869
        k(   56) = (   0.0000000   0.3750000   0.0000000), wk =   0.0327869
        k(   57) = (   0.0000000   0.4000000   0.0000000), wk =   0.0327869
        k(   58) = (   0.0000000   0.4250000   0.0000000), wk =   0.0327869
        k(   59) = (   0.0000000   0.4500000   0.0000000), wk =   0.0327869
        k(   60) = (   0.0000000   0.4750000   0.0000000), wk =   0.0327869
        k(   61) = (   0.0000000   0.5000000   0.0000000), wk =   0.0327869

     Dense  grid:   388955 G-vectors     FFT dimensions: (  81,  81, 135)

     Dynamical RAM for                 wfc:      88.97 MB

     Dynamical RAM for     wfc (w. buffer):      88.97 MB

     Dynamical RAM for           str. fact:      17.80 MB

     Dynamical RAM for           local pot:       0.00 MB

     Dynamical RAM for          nlocal pot:     461.17 MB

     Dynamical RAM for                qrad:       3.88 MB

     Dynamical RAM for          rho,v,vnew:      38.08 MB

     Dynamical RAM for           G-vectors:      25.22 MB

     Dynamical RAM for          h,s,v(r/c):      10.55 MB

     Dynamical RAM for          <psi|beta>:       1.14 MB

     Dynamical RAM for                 psi:     355.88 MB

     Dynamical RAM for                hpsi:     355.88 MB

     Dynamical RAM for      wfcinit/wfcrot:    1200.93 MB

     Estimated static dynamical RAM per process >     692.65 MB

     Estimated max dynamical RAM per process >       1.85 GB

     The potential is recalculated from file :
     /home/nano3/Desktop/RAYID/Ge+SiC/Ge+SiC_III/work/Ge+SiC_III__4.0.save/charge-density.dat

     Starting wfcs are  800 randomized atomic wfcs

     Band Structure Calculation
     Davidson diagonalization with overlap

     Computing kpt #:     1
     total cpu time spent up to now is      606.1 secs

     Computing kpt #:     2
     c_bands:  1 eigenvalues not converged
     total cpu time spent up to now is     1418.3 secs

     Computing kpt #:     3
     total cpu time spent up to now is     2029.9 secs

     Computing kpt #:     4
     total cpu time spent up to now is     2531.2 secs

     Computing kpt #:     5
     c_bands:  1 eigenvalues not converged
     total cpu time spent up to now is     3354.4 secs

     Computing kpt #:     6
     c_bands:  1 eigenvalues not converged
     total cpu time spent up to now is     4180.6 secs

     Computing kpt #:     7
     c_bands:  1 eigenvalues not converged
     total cpu time spent up to now is     5004.0 secs

     Computing kpt #:     8
     total cpu time spent up to now is     5690.3 secs

     Computing kpt #:     9
     total cpu time spent up to now is     6099.6 secs

     Computing kpt #:    10
     total cpu time spent up to now is     6514.8 secs

     Computing kpt #:    11
     total cpu time spent up to now is     6848.0 secs

     Computing kpt #:    12
     total cpu time spent up to now is     7189.5 secs

     Computing kpt #:    13
     total cpu time spent up to now is     7528.1 secs

     Computing kpt #:    14
     total cpu time spent up to now is     7866.6 secs

     Computing kpt #:    15
     total cpu time spent up to now is     8203.3 secs

     Computing kpt #:    16
     total cpu time spent up to now is     8672.0 secs

     Computing kpt #:    17
     total cpu time spent up to now is     9078.9 secs

     Computing kpt #:    18
     total cpu time spent up to now is     9416.0 secs

     Computing kpt #:    19
     total cpu time spent up to now is     9747.1 secs

     Computing kpt #:    20
     total cpu time spent up to now is    10081.9 secs

     Computing kpt #:    21
     total cpu time spent up to now is    10521.8 secs

     Computing kpt #:    22
     total cpu time spent up to now is    10895.6 secs

     Computing kpt #:    23
     total cpu time spent up to now is    11325.9 secs

     Computing kpt #:    24
     total cpu time spent up to now is    11832.8 secs

     Computing kpt #:    25
     total cpu time spent up to now is    12161.1 secs

     Computing kpt #:    26
     total cpu time spent up to now is    12550.3 secs

     Computing kpt #:    27
     total cpu time spent up to now is    12884.9 secs

     Computing kpt #:    28
     total cpu time spent up to now is    13210.7 secs

     Computing kpt #:    29
     total cpu time spent up to now is    13733.9 secs

     Computing kpt #:    30
     total cpu time spent up to now is    14276.7 secs

     Computing kpt #:    31
     total cpu time spent up to now is    14818.9 secs

     Computing kpt #:    32
     total cpu time spent up to now is    15373.3 secs

     Computing kpt #:    33
     total cpu time spent up to now is    15926.1 secs

     Computing kpt #:    34
     total cpu time spent up to now is    16318.4 secs

     Computing kpt #:    35
     total cpu time spent up to now is    16649.2 secs

     Computing kpt #:    36
     total cpu time spent up to now is    16971.0 secs

     Computing kpt #:    37
     total cpu time spent up to now is    17306.7 secs

     Computing kpt #:    38
     total cpu time spent up to now is    17634.1 secs

     Computing kpt #:    39
     total cpu time spent up to now is    17970.6 secs

     Computing kpt #:    40
     total cpu time spent up to now is    18295.9 secs

     Computing kpt #:    41
     total cpu time spent up to now is    18790.6 secs

     Computing kpt #:    42
     total cpu time spent up to now is    19201.3 secs

     Computing kpt #:    43
     total cpu time spent up to now is    19524.8 secs

     Computing kpt #:    44
     total cpu time spent up to now is    19854.4 secs

     Computing kpt #:    45
     total cpu time spent up to now is    20181.8 secs

     Computing kpt #:    46
     total cpu time spent up to now is    20508.9 secs

     Computing kpt #:    47
     total cpu time spent up to now is    20835.0 secs

     Computing kpt #:    48
     total cpu time spent up to now is    21160.8 secs

     Computing kpt #:    49
     total cpu time spent up to now is    21489.2 secs

     Computing kpt #:    50
     total cpu time spent up to now is    21830.2 secs

     Computing kpt #:    51
     total cpu time spent up to now is    22394.5 secs

     Computing kpt #:    52
     total cpu time spent up to now is    22956.0 secs

     Computing kpt #:    53
     total cpu time spent up to now is    23526.1 secs

     Computing kpt #:    54
     total cpu time spent up to now is    24088.4 secs

     Computing kpt #:    55
     total cpu time spent up to now is    24652.3 secs

     Computing kpt #:    56
     total cpu time spent up to now is    25214.5 secs

     Computing kpt #:    57
     total cpu time spent up to now is    25769.9 secs

     Computing kpt #:    58
     total cpu time spent up to now is    26304.7 secs

     Computing kpt #:    59
     total cpu time spent up to now is    26855.0 secs

     Computing kpt #:    60
     c_bands:  1 eigenvalues not converged
     total cpu time spent up to now is    27455.5 secs

     Computing kpt #:    61
     total cpu time spent up to now is    27814.2 secs

     ethr =  5.00E-08,  avg # of iterations = 41.4

     total cpu time spent up to now is    27814.2 secs

     End of band structure calculation

          k = 0.0000 0.5774 0.0000 ( 48666 PWs)   bands (ev):

   -15.4099 -15.3879 -14.8851 -14.8834 -13.9152 -13.9143 -13.9135 -13.9133
   -13.4919 -13.4759 -12.7873 -12.7678 -12.7638 -12.7474 -12.1824 -12.1812
   -11.8133 -11.8079 -11.2417 -11.2353 -10.2265 -10.2236 -10.2200 -10.2176
   -10.1386  -9.2026  -9.1926  -9.1828  -9.1745  -9.1323  -9.1322  -8.4767
    -8.4660  -8.3164  -8.0496  -8.0467  -8.0463  -8.0427  -7.4056  -7.4050
    -7.4046  -7.4040  -7.0494  -7.0490  -6.3503  -6.3487  -5.4650  -5.4591
    -5.4542  -5.4504  -5.4428  -5.4383  -5.4310  -5.4213  -4.9404  -4.9398
    -4.9390  -4.9380  -4.8904  -4.8854  -4.8213  -4.8197  -4.3977  -4.3761
    -4.0829  -4.0596  -4.0232  -4.0163  -3.9136  -3.9127  -3.9111  -3.9100
    -3.7801  -3.7793  -3.7785  -3.7778  -3.3819  -3.3128  -3.3030  -3.2828
    -3.0567  -3.0533  -2.9692  -2.9672  -2.9522  -2.7656  -2.7618  -2.5837
    -2.5655  -2.5622  -2.5466  -2.0391  -1.9853  -1.9803  -1.9265  -1.9247
    -1.8939  -1.8891  -1.8451  -1.8438  -0.2686  -0.0846  -0.0841  -0.0450
    -0.0410   0.5612   0.8251   0.8309   0.9180   0.9205   1.0063   1.0165
     1.2738   1.2810   1.3204   1.3225   1.4622   1.4638   2.0851   2.1265

          k = 0.0167 0.5774 0.0000 ( 48606 PWs)   bands (ev):

   -15.4096 -15.3876 -14.9092 -14.8587 -13.9375 -13.9361 -13.8917 -13.8903
   -13.4915 -13.4756 -12.8073 -12.7853 -12.7479 -12.7269 -12.1927 -12.1709
   -11.8130 -11.8076 -11.2663 -11.2100 -10.2425 -10.2401 -10.2039 -10.2018
   -10.1382  -9.2218  -9.2095  -9.1643  -9.1524  -9.1452  -9.1187  -8.4765
    -8.4657  -8.3165  -8.0771  -8.0741  -8.0180  -8.0148  -7.4542  -7.4532
    -7.3565  -7.3556  -7.0898  -7.0052  -6.4063  -6.2922  -5.5150  -5.4744
    -5.4625  -5.4600  -5.4426  -5.4090  -5.4046  -5.3899  -4.9404  -4.9401
    -4.9374  -4.9368  -4.8909  -4.8858  -4.8453  -4.7944  -4.3974  -4.3759
    -4.0852  -4.0598  -4.0503  -3.9854  -3.9228  -3.9202  -3.9030  -3.9005
    -3.8011  -3.7999  -3.7572  -3.7558  -3.3817  -3.3126  -3.3007  -3.2805
    -3.0945  -3.0156  -2.9693  -2.9673  -2.9545  -2.7843  -2.7425  -2.6051
    -2.5869  -2.5419  -2.5243  -2.0380  -1.9865  -1.9815  -1.9408  -1.9104
    -1.9067  -1.8767  -1.8574  -1.8316  -0.2687  -0.1042  -0.0710  -0.0578
    -0.0211   0.5635   0.8273   0.8331   0.8907   0.9474   1.0053   1.0175
     1.2739   1.2811   1.2925   1.3519   1.4380   1.4886   2.0851   2.1181

          k = 0.0333 0.5774 0.0000 ( 48590 PWs)   bands (ev):

   -15.4090 -15.3870 -14.9339 -14.8328 -13.9598 -13.9585 -13.8685 -13.8672
   -13.4910 -13.4750 -12.8353 -12.8135 -12.7219 -12.7007 -12.2038 -12.1603
   -11.8122 -11.8068 -11.2936 -11.1815 -10.2617 -10.2593 -10.1856 -10.1836
   -10.1374  -9.2463  -9.2340  -9.1581  -9.1363  -9.1240  -9.1048  -8.4762
    -8.4654  -8.3169  -8.1057  -8.1027  -7.9879  -7.9847  -7.5049  -7.5039
    -7.3080  -7.3071  -7.1288  -6.9612  -6.4633  -6.2351  -5.5726  -5.5052
    -5.4934  -5.4599  -5.4423  -5.3772  -5.3680  -5.3366  -4.9406  -4.9403
    -4.9354  -4.9348  -4.8927  -4.8872  -4.8693  -4.7679  -4.4009  -4.3794
    -4.0997  -4.0710  -4.0615  -3.9523  -3.9322  -3.9296  -3.8924  -3.8898
    -3.8212  -3.8201  -3.7341  -3.7328  -3.3811  -3.3121  -3.3030  -3.2829
    -3.1339  -2.9766  -2.9693  -2.9673  -2.9612  -2.8039  -2.7207  -2.6351
    -2.6173  -2.5138  -2.4959  -2.0347  -1.9901  -1.9851  -1.9561  -1.9219
    -1.8946  -1.8704  -1.8627  -1.8174  -0.2690  -0.1242  -0.0886  -0.0411
     0.0013   0.5704   0.8336   0.8394   0.8621   0.9746   1.0035   1.0198
     1.2647   1.2743   1.2814   1.3827   1.4142   1.5144   2.0761   2.0853

          k = 0.0500 0.5774 0.0000 ( 48588 PWs)   bands (ev):

   -15.4079 -15.3859 -14.9583 -14.8065 -13.9820 -13.9807 -13.8450 -13.8436
   -13.4900 -13.4740 -12.8646 -12.8429 -12.6962 -12.6749 -12.2151 -12.1500
   -11.8110 -11.8056 -11.3204 -11.1526 -10.2813 -10.2788 -10.1678 -10.1659
   -10.1359  -9.2694  -9.2571  -9.1718  -9.1089  -9.0970  -9.0870  -8.4755
    -8.4647  -8.3176  -8.1336  -8.1307  -7.9573  -7.9541  -7.5555  -7.5545
    -7.2601  -7.2592  -7.1669  -6.9162  -6.5202  -6.1783  -5.6305  -5.5362
    -5.5246  -5.4586  -5.4412  -5.3459  -5.3358  -5.2794  -4.9410  -4.9408
    -4.9325  -4.9320  -4.8991  -4.8904  -4.8882  -4.7409  -4.4064  -4.3849
    -4.1289  -4.0785  -4.0641  -3.9417  -3.9392  -3.9203  -3.8811  -3.8786
    -3.8402  -3.8391  -3.7109  -3.7095  -3.3799  -3.3110  -3.3055  -3.2855
    -3.1732  -2.9727  -2.9696  -2.9677  -2.9371  -2.8228  -2.6983  -2.6662
    -2.6488  -2.4859  -2.4678  -2.0293  -1.9959  -1.9909  -1.9718  -1.9376
    -1.8846  -1.8797  -1.8492  -1.8054  -0.2695  -0.1438  -0.1094  -0.0207
     0.0239   0.5819   0.8334   0.8442   0.8499   0.9931   1.0089   1.0223
     1.2388   1.2748   1.2820   1.3866   1.4188   1.5403   2.0387   2.0843

          k = 0.0667 0.5774 0.0000 ( 48594 PWs)   bands (ev):

   -15.4064 -15.3843 -14.9823 -14.7801 -14.0039 -14.0025 -13.8211 -13.8198
   -13.4886 -13.4727 -12.8945 -12.8729 -12.6711 -12.6497 -12.2265 -12.1400
   -11.8093 -11.8039 -11.3469 -11.1232 -10.3011 -10.2985 -10.1505 -10.1487
   -10.1340  -9.2917  -9.2794  -9.1856  -9.0891  -9.0707  -9.0596  -8.4746
    -8.4638  -8.3185  -8.1606  -8.1578  -7.9265  -7.9232  -7.6064  -7.6054
    -7.2127  -7.2118  -7.2037  -6.8701  -6.5771  -6.1215  -5.6879  -5.5672
    -5.5558  -5.4577  -5.4402  -5.3142  -5.3037  -5.2218  -4.9411  -4.9407
    -4.9290  -4.9285  -4.9192  -4.8962  -4.8923  -4.7148  -4.4136  -4.3921
    -4.1626  -4.0836  -4.0680  -3.9518  -3.9494  -3.8887  -3.8691  -3.8666
    -3.8572  -3.8564  -3.6866  -3.6852  -3.3783  -3.3095  -3.3095  -3.2897
    -3.2125  -2.9880  -2.9700  -2.9680  -2.8989  -2.8406  -2.6987  -2.6819
    -2.6752  -2.4588  -2.4406  -2.0222  -2.0039  -1.9990  -1.9872  -1.9535
    -1.8980  -1.8664  -1.8364  -1.7942  -0.2703  -0.1629  -0.1299  -0.0002
     0.0466   0.5978   0.8047   0.8587   0.8644   0.9924   1.0242   1.0329
     1.2144   1.2756   1.2828   1.3636   1.4516   1.5663   2.0012   2.0605

          k = 0.0833 0.5774 0.0000 ( 48584 PWs)   bands (ev):

   -15.4044 -15.3823 -15.0057 -14.7531 -14.0254 -14.0240 -13.7970 -13.7956
   -13.4870 -13.4711 -12.9250 -12.9034 -12.6469 -12.6255 -12.2380 -12.1303
   -11.8071 -11.8017 -11.3731 -11.0935 -10.3209 -10.3183 -10.1341 -10.1324
   -10.1310  -9.3121  -9.2999  -9.1997  -9.0762  -9.0392  -9.0274  -8.4734
    -8.4627  -8.3197  -8.1867  -8.1840  -7.8955  -7.8922  -7.6574  -7.6564
    -7.2385  -7.1664  -7.1655  -6.8229  -6.6336  -6.0650  -5.7465  -5.5979
    -5.5866  -5.4563  -5.4389  -5.2822  -5.2716  -5.1635  -4.9443  -4.9393
    -4.9374  -4.9246  -4.9241  -4.9005  -4.8963  -4.6869  -4.4251  -4.4036
    -4.1976  -4.0888  -4.0729  -3.9633  -3.9611  -3.8722  -3.8716  -3.8575
    -3.8562  -3.8538  -3.6617  -3.6602  -3.3757  -3.3124  -3.3071  -3.2927
    -3.2516  -3.0071  -2.9704  -2.9683  -2.8672  -2.8522  -2.7296  -2.7139
    -2.6517  -2.4324  -2.4142  -2.0163  -2.0130  -2.0092  -2.0009  -1.9696
    -1.9119  -1.8532  -1.8243  -1.7833  -0.2714  -0.1813  -0.1496   0.0203
     0.0692   0.6181   0.7762   0.8771   0.8828   0.9888   1.0262   1.0587
     1.1920   1.2765   1.2837   1.3404   1.4865   1.5927   1.9635   2.0168

          k = 0.1000 0.5774 0.0000 ( 48562 PWs)   bands (ev):

   -15.4020 -15.3799 -15.0289 -14.7257 -14.0465 -14.0452 -13.7726 -13.7712
   -13.4849 -13.4690 -12.9561 -12.9345 -12.6236 -12.6022 -12.2494 -12.1209
   -11.8044 -11.7990 -11.3988 -11.0633 -10.3409 -10.3381 -10.1287 -10.1177
   -10.1162  -9.3316  -9.3194  -9.2133  -9.0649  -9.0057  -8.9937  -8.4721
    -8.4614  -8.3213  -8.2116  -8.2091  -7.8644  -7.8610  -7.7087  -7.7076
    -7.2709  -7.1206  -7.1198  -6.7738  -6.6900  -6.0088  -5.8044  -5.6289
    -5.6176  -5.4548  -5.4375  -5.2504  -5.2397  -5.1065  -4.9653  -4.9359
    -4.9353  -4.9194  -4.9190  -4.9049  -4.9008  -4.6585  -4.4371  -4.4156
    -4.2331  -4.0951  -4.0792  -3.9759  -3.9740  -3.8835  -3.8830  -3.8428
    -3.8404  -3.8278  -3.6366  -3.6352  -3.3737  -3.3173  -3.3055  -3.2979
    -3.2905  -3.0297  -2.9709  -2.9688  -2.8769  -2.8258  -2.7581  -2.7446
    -2.6275  -2.4073  -2.3890  -2.0268  -2.0219  -2.0205  -1.9994  -1.9857
    -1.9250  -1.8401  -1.8130  -1.7724  -0.2727  -0.1989  -0.1686   0.0406
     0.0918   0.6427   0.7478   0.8990   0.9048   0.9848   1.0277   1.0839
     1.1715   1.2777   1.2849   1.3178   1.5224   1.6191   1.9258   1.9735

          k = 0.1167 0.5774 0.0000 ( 48566 PWs)   bands (ev):

   -15.3993 -15.3771 -15.0517 -14.6980 -14.0674 -14.0661 -13.7481 -13.7467
   -13.4824 -13.4664 -12.9876 -12.9660 -12.6013 -12.5800 -12.2611 -12.1120
   -11.8013 -11.7958 -11.4241 -11.0330 -10.3608 -10.3580 -10.1250 -10.1026
   -10.1012  -9.3490  -9.3368  -9.2277  -9.0556  -8.9709  -8.9588  -8.4704
    -8.4598  -8.3230  -8.2354  -8.2329  -7.8332  -7.8299  -7.7592  -7.7581
    -7.3024  -7.0765  -7.0758  -6.7464  -6.7256  -5.9532  -5.8629  -5.6595
    -5.6482  -5.4532  -5.4359  -5.2181  -5.2073  -5.0501  -4.9864  -4.9323
    -4.9318  -4.9167  -4.9155  -4.9074  -4.9046  -4.6297  -4.4517  -4.4302
    -4.2694  -4.1035  -4.0877  -3.9902  -3.9886  -3.8918  -3.8911  -3.8286
    -3.8262  -3.7982  -3.6114  -3.6099  -3.3710  -3.3294  -3.3236  -3.3045
    -3.3034  -3.0553  -2.9715  -2.9694  -2.8922  -2.8165  -2.7847  -2.7556
    -2.6029  -2.3830  -2.3647  -2.0408  -2.0365  -2.0345  -2.0020  -1.9884
    -1.9391  -1.8284  -1.8027  -1.7631  -0.2745  -0.2155  -0.1866   0.0605
     0.1141   0.6715   0.7196   0.9243   0.9300   0.9806   1.0283   1.1079
     1.1534   1.2789   1.2861   1.2961   1.5587   1.6451   1.8881   1.9299

          k = 0.1333 0.5774 0.0000 ( 48556 PWs)   bands (ev):

   -15.3961 -15.3739 -15.0740 -14.6699 -14.0880 -14.0866 -13.7234 -13.7220
   -13.4795 -13.4635 -13.0195 -12.9979 -12.5802 -12.5588 -12.2727 -12.1034
   -11.7976 -11.7922 -11.4491 -11.0021 -10.3807 -10.3778 -10.1209 -10.0884
   -10.0872  -9.3654  -9.3532  -9.2420  -9.0463  -8.9348  -8.9226  -8.4688
    -8.4581  -8.3251  -8.2578  -8.2555  -7.8109  -7.8099  -7.8020  -7.7987
    -7.3304  -7.0327  -7.0319  -6.8025  -6.6758  -5.9205  -5.8981  -5.6901
    -5.6790  -5.4513  -5.4342  -5.1863  -5.1755  -5.0099  -4.9902  -4.9278
    -4.9277  -4.9190  -4.9166  -4.9042  -4.9037  -4.6004  -4.4678  -4.4463
    -4.3058  -4.1120  -4.0965  -4.0059  -4.0045  -3.8971  -3.8961  -3.8137
    -3.8113  -3.7685  -3.5852  -3.5837  -3.3684  -3.3679  -3.3319  -3.3131
    -3.3015  -3.0833  -2.9722  -2.9701  -2.9071  -2.8408  -2.8174  -2.7280
    -2.5778  -2.3603  -2.3419  -2.0561  -2.0521  -2.0498  -2.0182  -1.9766
    -1.9524  -1.8169  -1.7933  -1.7533  -0.2767  -0.2309  -0.2037   0.0801
     0.1362   0.6915   0.7043   0.9526   0.9583   0.9765   1.0280   1.1283
     1.1402   1.2738   1.2812   1.2880   1.5949   1.6701   1.8503   1.8883

          k = 0.1500 0.5774 0.0000 ( 48568 PWs)   bands (ev):

   -15.3925 -15.3703 -15.0960 -14.6416 -14.1081 -14.1068 -13.6985 -13.6971
   -13.4763 -13.4603 -13.0518 -13.0302 -12.5601 -12.5387 -12.2843 -12.0953
   -11.7935 -11.7880 -11.4735 -10.9709 -10.4006 -10.3977 -10.1162 -10.0754
   -10.0743  -9.3797  -9.3675  -9.2564  -9.0381  -8.8975  -8.8853  -8.4669
    -8.4563  -8.3275  -8.2789  -8.2767  -7.8632  -7.8622  -7.7710  -7.7676
    -7.3574  -6.9897  -6.9890  -6.8583  -6.6252  -5.9792  -5.8438  -5.7214
    -5.7103  -5.4492  -5.4322  -5.1549  -5.1440  -5.0277  -4.9403  -4.9291
    -4.9276  -4.9171  -4.9135  -4.8989  -4.8987  -4.5708  -4.4861  -4.4646
    -4.3428  -4.1218  -4.1067  -4.0226  -4.0214  -3.8997  -3.8984  -3.7981
    -3.7958  -3.7394  -3.5596  -3.5581  -3.4062  -3.3655  -3.3408  -3.3224
    -3.2996  -3.1132  -2.9730  -2.9709  -2.9213  -2.8723  -2.8514  -2.6917
    -2.5523  -2.3391  -2.3207  -2.0724  -2.0682  -2.0663  -2.0342  -1.9721
    -1.9573  -1.8067  -1.7850  -1.7450  -0.2797  -0.2448  -0.2195   0.0992
     0.1579   0.6638   0.7407   0.9724   0.9836   0.9891   1.0265   1.1225
     1.1545   1.2541   1.2825   1.2896   1.6301   1.6926   1.8126   1.8492

          k = 0.1667 0.5774 0.0000 ( 48582 PWs)   bands (ev):

   -15.3884 -15.3661 -15.1176 -14.6131 -14.1280 -14.1266 -13.6733 -13.6719
   -13.4727 -13.4567 -13.0843 -13.0628 -12.5412 -12.5197 -12.2958 -12.0877
   -11.7889 -11.7834 -11.4975 -10.9394 -10.4204 -10.4175 -10.1110 -10.0634
   -10.0625  -9.3919  -9.3797  -9.2707  -9.0309  -8.8596  -8.8473  -8.4648
    -8.4543  -8.3302  -8.2983  -8.2963  -7.9154  -7.9144  -7.7402  -7.7369
    -7.3829  -6.9481  -6.9474  -6.9139  -6.5729  -6.0380  -5.7904  -5.7523
    -5.7412  -5.4471  -5.4302  -5.1242  -5.1133  -5.0455  -4.9400  -4.9349
    -4.9143  -4.9114  -4.8928  -4.8925  -4.8747  -4.5412  -4.5068  -4.4854
    -4.3821  -4.1328  -4.1180  -4.0406  -4.0394  -3.9000  -3.8984  -3.7818
    -3.7795  -3.7103  -3.5335  -3.5320  -3.4443  -3.3622  -3.3493  -3.3314
    -3.2980  -3.1442  -2.9739  -2.9717  -2.9353  -2.9042  -2.8852  -2.6539
    -2.5264  -2.3186  -2.3000  -2.0896  -2.0848  -2.0832  -2.0501  -1.9837
    -1.9453  -1.7976  -1.7779  -1.7375  -0.2837  -0.2567  -0.2341   0.1179
     0.1792   0.6362   0.7806   0.9686   1.0167   1.0222   1.0239   1.1125
     1.1744   1.2353   1.2845   1.2916   1.6614   1.7078   1.7748   1.8156

          k = 0.1833 0.5774 0.0000 ( 48592 PWs)   bands (ev):

   -15.3840 -15.3616 -15.1387 -14.5839 -14.1474 -14.1461 -13.6481 -13.6467
   -13.4689 -13.4529 -13.1172 -13.0956 -12.5234 -12.5019 -12.3074 -12.0807
   -11.7838 -11.7784 -11.5210 -10.9076 -10.4401 -10.4371 -10.1052 -10.0527
   -10.0520  -9.4024  -9.3903  -9.2851  -9.0244  -8.8204  -8.8081  -8.4627
    -8.4522  -8.3331  -8.3161  -8.3142  -7.9673  -7.9663  -7.7096  -7.7063
    -7.4052  -6.9692  -6.9072  -6.9065  -6.5211  -6.0953  -5.7814  -5.7704
    -5.7383  -5.4451  -5.4284  -5.0932  -5.0822  -5.0625  -4.9494  -4.9442
    -4.9046  -4.9030  -4.8860  -4.8856  -4.8192  -4.5318  -4.5111  -4.5104
    -4.4197  -4.1451  -4.1308  -4.0587  -4.0576  -3.8981  -3.8963  -3.7649
    -3.7626  -3.6822  -3.5077  -3.5061  -3.4820  -3.3600  -3.3584  -3.3410
    -3.2983  -3.1750  -2.9750  -2.9727  -2.9526  -2.9339  -2.9197  -2.6157
    -2.5001  -2.2996  -2.2808  -2.1078  -2.1030  -2.0988  -2.0655  -1.9974
    -1.9308  -1.7898  -1.7721  -1.7310  -0.2894  -0.2662  -0.2471   0.1359
     0.2001   0.6090   0.8233   0.9653   1.0203   1.0515   1.0570   1.1051
     1.1928   1.2177   1.2866   1.2938   1.6788   1.7045   1.7368   1.7968

          k = 0.2000 0.5774 0.0000 ( 48596 PWs)   bands (ev):

   -15.3792 -15.3567 -15.1593 -14.5544 -14.1666 -14.1653 -13.6225 -13.6210
   -13.4645 -13.4486 -13.1503 -13.1288 -12.5068 -12.4852 -12.3189 -12.0742
   -11.7782 -11.7728 -11.5442 -10.8754 -10.4597 -10.4566 -10.0989 -10.0434
   -10.0428  -9.4114  -9.3992  -9.2994  -9.0189  -8.7805  -8.7683  -8.4603
    -8.4499  -8.3365  -8.3320  -8.3303  -8.0191  -8.0181  -7.6794  -7.6760
    -7.4261  -7.0242  -6.8677  -6.8672  -6.4687  -6.1523  -5.8108  -5.7998
    -5.6878  -5.4428  -5.4264  -5.0780  -5.0621  -5.0511  -4.9599  -4.9545
    -4.8949  -4.8936  -4.8788  -4.8784  -4.7627  -4.5564  -4.5350  -4.4802
    -4.4577  -4.1595  -4.1457  -4.0772  -4.0760  -3.8944  -3.8924  -3.7473
    -3.7451  -3.6526  -3.5198  -3.4811  -3.4795  -3.3694  -3.3585  -3.3525
    -3.3009  -3.2032  -2.9806  -2.9760  -2.9737  -2.9587  -2.9473  -2.5774
    -2.4735  -2.2825  -2.2634  -2.1268  -2.1222  -2.1133  -2.0805  -2.0112
    -1.9156  -1.7832  -1.7675  -1.7250  -0.2964  -0.2734  -0.2585   0.1533
     0.2204   0.5820   0.8675   0.9633   1.0164   1.0874   1.0928   1.1003
     1.2016   1.2095   1.2891   1.2964   1.6701   1.6807   1.6987   1.8056

          k = 0.2167 0.5774 0.0000 ( 48594 PWs)   bands (ev):

   -15.3739 -15.3513 -15.1796 -14.5246 -14.1855 -14.1841 -13.5967 -13.5953
   -13.4598 -13.4438 -13.1836 -13.1621 -12.4916 -12.4699 -12.3303 -12.0683
   -11.7722 -11.7668 -11.5669 -10.8429 -10.4790 -10.4759 -10.0921 -10.0355
   -10.0351  -9.4186  -9.4065  -9.3135  -9.0140  -8.7404  -8.7281  -8.4577
    -8.4474  -8.3459  -8.3444  -8.3401  -8.0708  -8.0699  -7.6493  -7.6460
    -7.4440  -7.0788  -6.8295  -6.8290  -6.4151  -6.2092  -5.8405  -5.8296
    -5.6394  -5.4406  -5.4244  -5.0912  -5.0309  -5.0199  -4.9714  -4.9658
    -4.8837  -4.8826  -4.8713  -4.8708  -4.7063  -4.5834  -4.5620  -4.4960
    -4.4489  -4.1746  -4.1613  -4.0954  -4.0942  -3.8889  -3.8868  -3.7291
    -3.7269  -3.6255  -3.5569  -3.4548  -3.4530  -3.3794  -3.3631  -3.3597
    -3.3071  -3.2249  -3.0137  -2.9922  -2.9772  -2.9749  -2.9598  -2.5392
    -2.4467  -2.2678  -2.2482  -2.1464  -2.1419  -2.1269  -2.0947  -2.0255
    -1.8999  -1.7780  -1.7644  -1.7196  -0.3040  -0.2795  -0.2677   0.1701
     0.2400   0.5554   0.9090   0.9652   1.0139   1.0974   1.1238   1.1291
     1.1871   1.2243   1.2921   1.2995   1.6421   1.6471   1.6602   1.8349

          k = 0.2333 0.5774 0.0000 ( 48580 PWs)   bands (ev):

   -15.3682 -15.3454 -15.1995 -14.4944 -14.2040 -14.2026 -13.5709 -13.5694
   -13.4546 -13.4387 -13.2171 -13.1955 -12.4776 -12.4558 -12.3416 -12.0631
   -11.7656 -11.7602 -11.5892 -10.8100 -10.4982 -10.4950 -10.0847 -10.0292
   -10.0288  -9.4241  -9.4120  -9.3276  -9.0102  -8.6988  -8.6865  -8.4545
    -8.4443  -8.3577  -8.3564  -8.3440  -8.1219  -8.1210  -7.6197  -7.6164
    -7.4598  -7.1331  -6.7921  -6.7916  -6.3618  -6.2666  -5.8699  -5.8590
    -5.5938  -5.4384  -5.4225  -5.1019  -4.9996  -4.9886  -4.9836  -4.9777
    -4.8719  -4.8710  -4.8634  -4.8629  -4.6501  -4.6120  -4.5907  -4.5349
    -4.4173  -4.1910  -4.1784  -4.1139  -4.1128  -3.8818  -3.8796  -3.7103
    -3.7082  -3.5991  -3.5938  -3.4278  -3.4259  -3.3898  -3.3741  -3.3689
    -3.3148  -3.2368  -3.0477  -3.0267  -2.9786  -2.9761  -2.9685  -2.5012
    -2.4198  -2.2560  -2.2355  -2.1662  -2.1618  -2.1386  -2.1077  -2.0392
    -1.8840  -1.7743  -1.7626  -1.7150  -0.3111  -0.2856  -0.2745   0.1860
     0.2588   0.5293   0.9339   0.9770   1.0201   1.0971   1.1594   1.1646
     1.1747   1.2371   1.2959   1.3035   1.6072   1.6102   1.6214   1.8720

          k = 0.2500 0.5774 0.0000 ( 48562 PWs)   bands (ev):

   -15.3621 -15.3391 -15.2188 -14.4639 -14.2222 -14.2208 -13.5449 -13.5434
   -13.4491 -13.4332 -13.2507 -13.2291 -12.4651 -12.4430 -12.3527 -12.0585
   -11.7586 -11.7532 -11.6109 -10.7768 -10.5171 -10.5140 -10.0767 -10.0247
   -10.0241  -9.4272  -9.4152  -9.3416  -9.0068  -8.6563  -8.6440  -8.4515
    -8.4414  -8.3674  -8.3662  -8.3483  -8.1722  -8.1713  -7.5906  -7.5872
    -7.4727  -7.1872  -6.7566  -6.7561  -6.3219  -6.3081  -5.8988  -5.8879
    -5.5518  -5.4364  -5.4210  -5.1091  -4.9964  -4.9902  -4.9689  -4.9580
    -4.8595  -4.8588  -4.8541  -4.8537  -4.6435  -4.6222  -4.5941  -4.5733
    -4.3853  -4.2082  -4.1962  -4.1322  -4.1310  -3.8731  -3.8708  -3.6910
    -3.6889  -3.6302  -3.5732  -3.4031  -3.4014  -3.3997  -3.3892  -3.3863
    -3.3179  -3.2407  -3.0821  -3.0615  -2.9800  -2.9777  -2.9750  -2.4635
    -2.3929  -2.2476  -2.2257  -2.1861  -2.1819  -2.1477  -2.1187  -2.0526
    -1.8680  -1.7720  -1.7624  -1.7098  -0.3172  -0.2914  -0.2796   0.2010
     0.2766   0.5039   0.9393   0.9849   1.0483   1.1022   1.1646   1.1930
     1.1984   1.2480   1.3012   1.3090   1.5701   1.5722   1.5825   1.9082

          k = 0.2667 0.5774 0.0000 ( 48562 PWs)   bands (ev):

   -15.3557 -15.3323 -15.2374 -14.4330 -14.2397 -14.2384 -13.5190 -13.5174
   -13.4431 -13.4272 -13.2845 -13.2630 -12.4542 -12.4317 -12.3635 -12.0546
   -11.7511 -11.7457 -11.6324 -10.7432 -10.5358 -10.5326 -10.0681 -10.0219
   -10.0212  -9.4291  -9.4171  -9.3554  -9.0039  -8.6134  -8.6011  -8.4481
    -8.4383  -8.3750  -8.3740  -8.3527  -8.2238  -8.2229  -7.5620  -7.5586
    -7.4832  -7.2408  -6.7221  -6.7217  -6.3782  -6.2542  -5.9291  -5.9183
    -5.5146  -5.4345  -5.4198  -5.1119  -5.0097  -5.0032  -4.9396  -4.9288
    -4.8474  -4.8464  -4.8434  -4.8424  -4.6761  -4.6548  -4.6125  -4.5361
    -4.3529  -4.2275  -4.2163  -4.1500  -4.1489  -3.8629  -3.8604  -3.6712
    -3.6692  -3.6662  -3.5462  -3.4257  -3.4107  -3.3963  -3.3751  -3.3722
    -3.3153  -3.2394  -3.1173  -3.0971  -2.9823  -2.9802  -2.9781  -2.4260
    -2.3662  -2.2443  -2.2203  -2.2060  -2.2018  -2.1537  -2.1273  -2.0657
    -1.8518  -1.7716  -1.7637  -1.7048  -0.3221  -0.2965  -0.2836   0.2150
     0.2931   0.4796   0.9393   0.9842   1.0732   1.1260   1.1595   1.2222
     1.2279   1.2568   1.3094   1.3175   1.5322   1.5341   1.5435   1.9405

          k = 0.2833 0.5774 0.0000 ( 48550 PWs)   bands (ev):

   -15.3491 -15.3252 -15.2557 -14.4019 -14.2571 -14.2557 -13.4932 -13.4914
   -13.4364 -13.4207 -13.3184 -13.2969 -12.4448 -12.4217 -12.3740 -12.0515
   -11.7432 -11.7377 -11.6532 -10.7095 -10.5542 -10.5510 -10.0590 -10.0210
   -10.0200  -9.4291  -9.4171  -9.3690  -9.0017  -8.5699  -8.5577  -8.4449
    -8.4352  -8.3803  -8.3795  -8.3576  -8.2729  -8.2720  -7.5338  -7.5305
    -7.4909  -7.2940  -6.6891  -6.6887  -6.4340  -6.2000  -5.9577  -5.9470
    -5.4834  -5.4331  -5.4193  -5.1092  -5.0233  -5.0164  -4.9097  -4.8990
    -4.8382  -4.8369  -4.8280  -4.8270  -4.7097  -4.6885  -4.6532  -4.4807
    -4.3202  -4.2484  -4.2379  -4.1678  -4.1666  -3.8511  -3.8486  -3.7019
    -3.6509  -3.6489  -3.5215  -3.4630  -3.4223  -3.4085  -3.3501  -3.3465
    -3.3100  -3.2358  -3.1517  -3.1319  -2.9852  -2.9821  -2.9796  -2.3889
    -2.3402  -2.2459  -2.2255  -2.2222  -2.2183  -2.1560  -2.1319  -2.0786
    -1.8356  -1.7732  -1.7666  -1.7019  -0.3256  -0.3004  -0.2870   0.2276
     0.3077   0.4572   0.9382   0.9818   1.0795   1.1430   1.1885   1.2445
     1.2503   1.2637   1.3226   1.3305   1.4942   1.4963   1.5046   1.9725

          k = 0.3000 0.5774 0.0000 ( 48566 PWs)   bands (ev):

   -15.3426 -15.3177 -15.2731 -14.3704 -14.2741 -14.2728 -13.4679 -13.4656
   -13.4290 -13.4137 -13.3523 -13.3308 -12.4371 -12.4131 -12.3840 -12.0493
   -11.7347 -11.7293 -11.6737 -10.6755 -10.5724 -10.5692 -10.0494 -10.0219
   -10.0208  -9.4273  -9.4155  -9.3821  -9.0002  -8.5257  -8.5136  -8.4415
    -8.4322  -8.3840  -8.3833  -8.3628  -8.3225  -8.3216  -7.5063  -7.5030
    -7.4966  -7.3470  -6.6578  -6.6575  -6.4899  -6.1457  -5.9862  -5.9755
    -5.4601  -5.4318  -5.4197  -5.1001  -5.0371  -5.0299  -4.8803  -4.8701
    -4.8293  -4.8275  -4.8112  -4.8101  -4.7457  -4.7246  -4.6928  -4.4258
    -4.2872  -4.2715  -4.2617  -4.1853  -4.1841  -3.8379  -3.8353  -3.7371
    -3.6302  -3.6282  -3.5031  -3.4975  -3.4337  -3.4206  -3.3276  -3.3217
    -3.3026  -3.2311  -3.1843  -3.1653  -2.9871  -2.9836  -2.9810  -2.3522
    -2.3155  -2.2518  -2.2443  -2.2410  -2.2218  -2.1554  -2.1328  -2.0902
    -1.8194  -1.7765  -1.7710  -1.6982  -0.3278  -0.3030  -0.2900   0.2384
     0.3193   0.4384   0.9370   0.9796   1.0805   1.1411   1.2442   1.2595
     1.2658   1.2692   1.3415   1.3485   1.4564   1.4591   1.4659   2.0043

          k = 0.3167 0.5774 0.0000 ( 48554 PWs)   bands (ev):

   -15.3365 -15.3097 -15.2891 -14.3386 -14.2908 -14.2895 -13.4446 -13.4408
   -13.4196 -13.4057 -13.3856 -13.3643 -12.4317 -12.4058 -12.3929 -12.0479
   -11.7258 -11.7204 -11.6937 -10.6410 -10.5903 -10.5870 -10.0393 -10.0246
   -10.0232  -9.4241  -9.4127  -9.3940  -8.9992  -8.4810  -8.4690  -8.4383
    -8.4294  -8.3913  -8.3910  -8.3689  -8.3648  -8.3639  -7.4995  -7.4794
    -7.4761  -7.3993  -6.6283  -6.6280  -6.5451  -6.0915  -6.0142  -6.0036
    -5.4462  -5.4290  -5.4207  -5.0846  -5.0500  -5.0428  -4.8521  -4.8429
    -4.8197  -4.8166  -4.7953  -4.7923  -4.7798  -4.7608  -4.7325  -4.3713
    -4.2944  -4.2852  -4.2525  -4.2026  -4.2015  -3.8233  -3.8206  -3.7717
    -3.6091  -3.6073  -3.5446  -3.4745  -3.4444  -3.4315  -3.3109  -3.3002
    -3.2924  -3.2255  -3.2114  -3.1946  -2.9875  -2.9848  -2.9822  -2.3159
    -2.2942  -2.2644  -2.2598  -2.2575  -2.2273  -2.1534  -2.1309  -2.0997
    -1.8034  -1.7816  -1.7768  -1.6968  -0.3288  -0.3044  -0.2922   0.2463
     0.3265   0.4255   0.9362   0.9782   1.0804   1.1393   1.2637   1.2674
     1.2723   1.3172   1.3631   1.3687   1.4187   1.4227   1.4280   2.0349

          k = 0.3333 0.5774 0.0000 ( 48552 PWs)   bands (ev):

   -15.3333 -15.3017 -15.3008 -14.3076 -14.3059 -14.3058 -13.4291 -13.4201
   -13.4187 -13.4021 -13.4005 -13.3904 -12.4296 -12.4002 -12.3994 -12.0474
   -11.7173 -11.7135 -11.7099 -10.6090 -10.6056 -10.6040 -10.0293 -10.0288
   -10.0275  -9.4215  -9.4116  -9.4006  -8.9990  -8.4390  -8.4384  -8.4317
    -8.4285  -8.4215  -8.4207  -8.3745  -8.3735  -8.3725  -7.5006  -7.4537
    -7.4516  -7.4490  -6.6002  -6.5999  -6.5997  -6.0464  -6.0358  -6.0283
    -5.4425  -5.4257  -5.4225  -5.0693  -5.0563  -5.0550  -4.8281  -4.8261
    -4.8185  -4.8097  -4.8008  -4.7985  -4.7720  -4.7708  -4.7697  -4.3216
    -4.3187  -4.3082  -4.2200  -4.2183  -4.2182  -3.8074  -3.8056  -3.8043
    -3.5885  -3.5867  -3.5857  -3.4566  -3.4542  -3.4391  -3.3032  -3.2912
    -3.2863  -3.2255  -3.2207  -3.2089  -2.9872  -2.9851  -2.9831  -2.2842
    -2.2833  -2.2792  -2.2775  -2.2615  -2.2311  -2.1518  -2.1288  -2.1038
    -1.7913  -1.7855  -1.7832  -1.6964  -0.3290  -0.3048  -0.2931   0.2494
     0.3285   0.4210   0.9360   0.9778   1.0802   1.1388   1.2671   1.2680
     1.2738   1.3760   1.3830   1.3835   1.3885   1.3922   1.3941   2.0558

          k = 0.3167 0.5485 0.0000 ( 48558 PWs)   bands (ev):

   -15.3507 -15.2996 -15.2831 -14.3384 -14.3373 -14.2415 -13.4895 -13.4681
   -13.4050 -13.3902 -13.3544 -13.3519 -12.4382 -12.4040 -12.3918 -12.0494
   -11.7515 -11.6948 -11.6912 -10.6418 -10.6390 -10.5362 -10.0436 -10.0427
   -10.0055  -9.4383  -9.3994  -9.3873  -9.0000  -8.5286  -8.5279  -8.4284
    -8.4191  -8.3841  -8.3721  -8.3711  -8.3339  -8.3226  -7.5546  -7.4967
    -7.4022  -7.3997  -6.7099  -6.5478  -6.5475  -6.0959  -6.0854  -5.9262
    -5.4498  -5.4362  -5.4240  -5.0897  -5.0786  -5.0000  -4.9031  -4.8824
    -4.8570  -4.7963  -4.7954  -4.7562  -4.7467  -4.7270  -4.7267  -4.3769
    -4.3706  -4.2527  -4.2515  -4.2106  -4.1513  -3.8716  -3.7699  -3.7686
    -3.6726  -3.5456  -3.5438  -3.4773  -3.4691  -3.4049  -3.3450  -3.3271
    -3.2777  -3.2085  -3.1898  -3.1839  -2.9887  -2.9865  -2.9759  -2.3157
    -2.3127  -2.3017  -2.2732  -2.2120  -2.2093  -2.1602  -2.1308  -2.0889
    -1.8083  -1.8039  -1.7550  -1.6978  -0.3300  -0.3023  -0.2887   0.2328
     0.3298   0.4334   0.9373   0.9798   1.0815   1.1406   1.2500   1.2651
     1.2687   1.3107   1.3197   1.3281   1.4141   1.4167   1.5328   2.0154

          k = 0.3000 0.5196 0.0000 ( 48554 PWs)   bands (ev):

   -15.3802 -15.2824 -15.2634 -14.3684 -14.3673 -14.1752 -13.5573 -13.5359
   -13.3873 -13.3718 -13.3019 -13.3002 -12.4552 -12.4043 -12.3892 -12.0554
   -11.7873 -11.6727 -11.6691 -10.6746 -10.6718 -10.4650 -10.0656 -10.0644
    -9.9804  -9.4624  -9.3761  -9.3640  -9.0017  -8.6259  -8.6252  -8.4279
    -8.4130  -8.3900  -8.3480  -8.3478  -8.2425  -8.2303  -7.6558  -7.4840
    -7.3545  -7.3521  -6.8185  -6.5015  -6.5011  -6.1478  -6.1375  -5.8157
    -5.4683  -5.4578  -5.4364  -5.1087  -5.0959  -4.9860  -4.9652  -4.9368
    -4.9292  -4.7760  -4.7757  -4.6991  -4.6906  -4.6783  -4.6770  -4.4403
    -4.4355  -4.2840  -4.2828  -4.1063  -4.0868  -3.9314  -3.7582  -3.7279
    -3.7265  -3.5100  -3.5057  -3.4994  -3.4924  -3.4021  -3.3864  -3.3631
    -3.2586  -3.1874  -3.1378  -3.1351  -2.9903  -2.9880  -2.9587  -2.3466
    -2.3439  -2.3271  -2.2972  -2.1924  -2.1782  -2.1411  -2.1304  -2.0527
    -1.8331  -1.8291  -1.7317  -1.6980  -0.3362  -0.2918  -0.2762   0.1897
     0.3407   0.4569   0.9416   0.9855   1.0861   1.1443   1.1876   1.2409
     1.2458   1.2641   1.2680   1.2951   1.4258   1.4271   1.6861   1.9426

          k = 0.2833 0.4907 0.0000 ( 48558 PWs)   bands (ev):

   -15.4097 -15.2615 -15.2417 -14.3969 -14.3957 -14.1080 -13.6251 -13.6036
   -13.3687 -13.3529 -13.2488 -13.2473 -12.4736 -12.4077 -12.3917 -12.0657
   -11.8213 -11.6488 -11.6452 -10.7059 -10.7030 -10.3929 -10.0943 -10.0928
    -9.9530  -9.4855  -9.3462  -9.3341  -9.0027  -8.7216  -8.7210  -8.4382
    -8.4058  -8.3885  -8.3171  -8.3166  -8.1453  -8.1331  -7.7555  -7.4633
    -7.3098  -7.3074  -6.9264  -6.4611  -6.4607  -6.1986  -6.1883  -5.7064
    -5.4986  -5.4910  -5.4555  -5.1195  -5.1050  -5.0734  -5.0527  -5.0207
    -4.8556  -4.7563  -4.7561  -4.6434  -4.6362  -4.6264  -4.6237  -4.5088
    -4.5054  -4.3136  -4.3125  -4.0482  -4.0022  -3.9625  -3.8424  -3.6806
    -3.6792  -3.5195  -3.5176  -3.5140  -3.5021  -3.4170  -3.4126  -3.3232
    -3.2383  -3.1671  -3.0835  -3.0815  -2.9908  -2.9884  -2.9322  -2.3742
    -2.3717  -2.3529  -2.3230  -2.2036  -2.1805  -2.1329  -2.0752  -2.0028
    -1.8633  -1.8595  -1.7342  -1.6753  -0.3468  -0.2735  -0.2574   0.1351
     0.3550   0.4822   0.9490   0.9945   1.0928   1.1029   1.1429   1.1889
     1.2007   1.2395   1.2422   1.2798   1.4208   1.4230   1.8428   1.8656

          k = 0.2667 0.4619 0.0000 ( 48580 PWs)   bands (ev):

   -15.4380 -15.2387 -15.2185 -14.4239 -14.4227 -14.0396 -13.6922 -13.6708
   -13.3491 -13.3332 -13.1957 -13.1943 -12.4919 -12.4151 -12.3989 -12.0804
   -11.8534 -11.6229 -11.6193 -10.7357 -10.7329 -10.3203 -10.1289 -10.1271
    -9.9236  -9.5084  -9.3102  -9.2981  -9.0023  -8.8154  -8.8147  -8.4558
    -8.3976  -8.3826  -8.2777  -8.2770  -8.0445  -8.0324  -7.8533  -7.4349
    -7.2682  -7.2659  -7.0324  -6.4262  -6.4257  -6.2460  -6.2358  -5.6013
    -5.5418  -5.5363  -5.4773  -5.1654  -5.1449  -5.1210  -5.1058  -5.1034
    -4.7840  -4.7371  -4.7368  -4.5915  -4.5893  -4.5846  -4.5772  -4.5683
    -4.5667  -4.3424  -4.3412  -4.0818  -3.9246  -3.9177  -3.9028  -3.6283
    -3.6268  -3.5750  -3.5556  -3.5396  -3.5356  -3.3820  -3.3808  -3.2857
    -3.2176  -3.1468  -3.0303  -3.0287  -2.9891  -2.9868  -2.8958  -2.3986
    -2.3962  -2.3785  -2.3488  -2.2253  -2.1832  -2.1398  -2.0118  -1.9452
    -1.8980  -1.8944  -1.7502  -1.6425  -0.3604  -0.2494  -0.2336   0.0759
     0.3687   0.5066   0.9590   1.0050   1.0111   1.0913   1.1132   1.1530
     1.1847   1.2071   1.2094   1.2661   1.4060   1.4095   1.7885   1.7897

          k = 0.2500 0.4330 0.0000 ( 48552 PWs)   bands (ev):

   -15.4647 -15.2140 -15.1935 -14.4492 -14.4481 -13.9702 -13.7588 -13.7373
   -13.3283 -13.3123 -13.1431 -13.1417 -12.5095 -12.4266 -12.4104 -12.0996
   -11.8836 -11.5951 -11.5915 -10.7639 -10.7611 -10.2468 -10.1686 -10.1667
    -9.8918  -9.5304  -9.2676  -9.2555  -9.0002  -8.9061  -8.9051  -8.4774
    -8.3892  -8.3752  -8.2306  -8.2296  -7.9491  -7.9422  -7.9301  -7.4004
    -7.2298  -7.2276  -7.1373  -6.3953  -6.3948  -6.2903  -6.2801  -5.5968
    -5.5926  -5.4997  -5.4972  -5.2591  -5.2390  -5.1889  -5.1142  -5.0972
    -4.7193  -4.7191  -4.7174  -4.6649  -4.6636  -4.5318  -4.5242  -4.5147
    -4.5125  -4.3686  -4.3674  -4.1355  -4.0038  -3.8491  -3.8055  -3.6415
    -3.6216  -3.5712  -3.5697  -3.5595  -3.5569  -3.3362  -3.3350  -3.2468
    -3.1948  -3.1244  -2.9930  -2.9905  -2.9687  -2.9678  -2.8491  -2.4199
    -2.4176  -2.4029  -2.3737  -2.2458  -2.1930  -2.1515  -1.9516  -1.9365
    -1.9329  -1.8833  -1.7731  -1.6073  -0.3763  -0.2211  -0.2056   0.0142
     0.3805   0.5287   0.9143   0.9688   1.0126   1.0655   1.0708   1.1515
     1.1615   1.1678   1.1952   1.2516   1.3869   1.3911   1.7154   1.7165

          k = 0.2333 0.4041 0.0000 ( 48586 PWs)   bands (ev):

   -15.4899 -15.1876 -15.1670 -14.4728 -14.4717 -13.8997 -13.8249 -13.8035
   -13.3059 -13.2898 -13.0913 -13.0900 -12.5264 -12.4422 -12.4261 -12.1238
   -11.9119 -11.5655 -11.5619 -10.7904 -10.7876 -10.2128 -10.2107 -10.1729
    -9.8580  -9.5525  -9.2213  -9.2093  -9.0054  -8.9945  -8.9837  -8.5022
    -8.3797  -8.3663  -8.1763  -8.1751  -8.0434  -7.8387  -7.8266  -7.3611
    -7.2403  -7.1946  -7.1924  -6.3697  -6.3691  -6.3333  -6.3233  -5.6618
    -5.6585  -5.5226  -5.4001  -5.3506  -5.3330  -5.2733  -5.1009  -5.0832
    -4.7521  -4.7496  -4.7029  -4.7024  -4.6559  -4.4777  -4.4683  -4.4550
    -4.4547  -4.3936  -4.3924  -4.1901  -4.0796  -3.7761  -3.7139  -3.7090
    -3.6890  -3.5791  -3.5774  -3.5100  -3.5085  -3.2875  -3.2863  -3.2149
    -3.1697  -3.0998  -2.9860  -2.9831  -2.9184  -2.9170  -2.7919  -2.4386
    -2.4364  -2.4267  -2.3977  -2.2673  -2.2092  -2.1683  -1.9784  -1.9751
    -1.8934  -1.8194  -1.8044  -1.5706  -0.3943  -0.1897  -0.1746  -0.0489
     0.3896   0.5477   0.8132   0.9669   0.9966   1.0451   1.0517   1.1073
     1.1087   1.1770   1.2124   1.2362   1.3647   1.3690   1.6474   1.6487

          k = 0.2167 0.3753 0.0000 ( 48598 PWs)   bands (ev):

   -15.5134 -15.1593 -15.1386 -14.4949 -14.4938 -13.8903 -13.8689 -13.8286
   -13.2824 -13.2663 -13.0406 -13.0392 -12.5423 -12.4612 -12.4455 -12.1526
   -11.9384 -11.5341 -11.5305 -10.8153 -10.8125 -10.2605 -10.2582 -10.0985
    -9.8220  -9.5723  -9.1705  -9.1586  -9.0811  -9.0792  -8.9845  -8.5300
    -8.3719  -8.3590  -8.1358  -8.1157  -8.1143  -7.7327  -7.7207  -7.3416
    -7.3157  -7.1625  -7.1603  -6.3766  -6.3673  -6.3446  -6.3432  -5.7348
    -5.7320  -5.5439  -5.4507  -5.4295  -5.3587  -5.2952  -5.0819  -5.0637
    -4.8423  -4.8391  -4.6872  -4.6867  -4.6021  -4.4247  -4.4176  -4.4155
    -4.4137  -4.3956  -4.3950  -4.2429  -4.1516  -3.7775  -3.7575  -3.7012
    -3.6264  -3.5970  -3.5937  -3.4451  -3.4436  -3.2378  -3.2365  -3.1843
    -3.1442  -3.0749  -2.9789  -2.9759  -2.8663  -2.8650  -2.7241  -2.4553
    -2.4529  -2.4487  -2.4206  -2.2863  -2.2292  -2.1882  -2.0226  -2.0193
    -1.8401  -1.8390  -1.7539  -1.5327  -0.4147  -0.1572  -0.1420  -0.1113
     0.3958   0.5628   0.7077   0.9422   0.9584   1.0396   1.0465   1.0572
     1.0608   1.2045   1.2202   1.2365   1.3380   1.3418   1.5873   1.5892

          k = 0.2000 0.3464 0.0000 ( 48594 PWs)   bands (ev):

   -15.5351 -15.1294 -15.1086 -14.5155 -14.5144 -13.9550 -13.9336 -13.7567
   -13.2577 -13.2415 -12.9911 -12.9897 -12.5574 -12.4832 -12.4679 -12.1860
   -11.9629 -11.5009 -11.4973 -10.8386 -10.8357 -10.3111 -10.3086 -10.0236
    -9.7837  -9.5904  -9.1642  -9.1628  -9.1133  -9.1016  -8.9719  -8.5607
    -8.3644  -8.3517  -8.2261  -8.0493  -8.0478  -7.6250  -7.6131  -7.4407
    -7.2651  -7.1334  -7.1313  -6.4134  -6.4034  -6.3268  -6.3261  -5.8144
    -5.8119  -5.5643  -5.5462  -5.5257  -5.4449  -5.1994  -5.0587  -5.0403
    -4.9371  -4.9329  -4.6720  -4.6715  -4.5553  -4.4384  -4.4371  -4.3723
    -4.3621  -4.3367  -4.3358  -4.2933  -4.2191  -3.8455  -3.8255  -3.6235
    -3.6173  -3.6157  -3.5358  -3.3772  -3.3756  -3.1877  -3.1864  -3.1560
    -3.1169  -3.0483  -2.9696  -2.9665  -2.8156  -2.8142  -2.6462  -2.4717
    -2.4683  -2.4675  -2.4423  -2.3048  -2.2527  -2.2112  -2.0686  -2.0654
    -1.8812  -1.7879  -1.6874  -1.4935  -0.4374  -0.1802  -0.1190  -0.1064
     0.3989   0.5730   0.5978   0.9071   0.9175   0.9806   0.9846   1.0625
     1.0819   1.2040   1.2370   1.2667   1.3048   1.3076   1.5371   1.5399

          k = 0.1833 0.3175 0.0000 ( 48596 PWs)   bands (ev):

   -15.5553 -15.0978 -15.0770 -14.5344 -14.5333 -14.0188 -13.9974 -13.6846
   -13.2318 -13.2155 -12.9433 -12.9419 -12.5716 -12.5078 -12.4933 -12.2241
   -11.9854 -11.4660 -11.4624 -10.8600 -10.8572 -10.3638 -10.3612  -9.9486
    -9.7432  -9.6071  -9.2402  -9.2391  -9.0568  -9.0449  -8.9547  -8.5943
    -8.3578  -8.3454  -8.3145  -7.9779  -7.9762  -7.5391  -7.5159  -7.5040
    -7.2113  -7.1073  -7.1053  -6.4469  -6.4368  -6.3114  -6.3107  -5.8993
    -5.8970  -5.6424  -5.6222  -5.5841  -5.5316  -5.1070  -5.0389  -5.0326
    -5.0280  -5.0107  -4.6561  -4.6556  -4.5155  -4.4581  -4.4566  -4.3408
    -4.3225  -4.3123  -4.2819  -4.2769  -4.2757  -3.9131  -3.8932  -3.6375
    -3.6351  -3.5469  -3.4566  -3.3070  -3.3053  -3.1378  -3.1364  -3.1302
    -3.0883  -3.0204  -2.9577  -2.9545  -2.7664  -2.7650  -2.5588  -2.4907
    -2.4825  -2.4811  -2.4628  -2.3227  -2.2785  -2.2366  -2.1158  -2.1127
    -1.9266  -1.7404  -1.6205  -1.4531  -0.4625  -0.2441  -0.0843  -0.0718
     0.3986   0.4839   0.5774   0.8660   0.8725   0.9232   0.9284   1.0632
     1.1159   1.1877   1.2630   1.2664   1.2747   1.3022   1.4971   1.5008

          k = 0.1667 0.2887 0.0000 ( 48552 PWs)   bands (ev):

   -15.5736 -15.0646 -15.0438 -14.5515 -14.5504 -14.0815 -14.0601 -13.6112
   -13.2046 -13.1883 -12.8976 -12.8962 -12.5854 -12.5344 -12.5210 -12.2665
   -12.0061 -11.4292 -11.4256 -10.8795 -10.8767 -10.4183 -10.4156  -9.8735
    -9.7005  -9.6227  -9.3132  -9.3122  -8.9965  -8.9846  -8.9323  -8.6306
    -8.4008  -8.3523  -8.3401  -7.9020  -7.9002  -7.6326  -7.4059  -7.3942
    -7.1535  -7.0840  -7.0820  -6.4763  -6.4661  -6.2974  -6.2967  -5.9885
    -5.9862  -5.7345  -5.7146  -5.6154  -5.6024  -5.1381  -5.1324  -5.0225
    -5.0010  -4.9819  -4.6411  -4.6406  -4.4836  -4.4756  -4.4724  -4.3852
    -4.3398  -4.2754  -4.2652  -4.2176  -4.2163  -3.9793  -3.9594  -3.6559
    -3.6526  -3.4679  -3.3828  -3.2352  -3.2335  -3.1056  -3.0883  -3.0869
    -3.0581  -2.9910  -2.9429  -2.9396  -2.7204  -2.7190  -2.5092  -2.4954
    -2.4939  -2.4820  -2.4626  -2.3396  -2.3075  -2.2656  -2.1638  -2.1608
    -1.9760  -1.6965  -1.5533  -1.4114  -0.4903  -0.3086  -0.0493  -0.0375
     0.3660   0.3947   0.5751   0.8122   0.8160   0.8821   0.8886   1.0565
     1.1553   1.1718   1.2196   1.2217   1.3113   1.3403   1.4650   1.4694

          k = 0.1500 0.2598 0.0000 ( 48554 PWs)   bands (ev):

   -15.5901 -15.0298 -15.0089 -14.5673 -14.5661 -14.1432 -14.1218 -13.5374
   -13.1763 -13.1599 -12.8543 -12.8529 -12.5992 -12.5617 -12.5507 -12.3129
   -12.0247 -11.3907 -11.3872 -10.8974 -10.8946 -10.4738 -10.4710  -9.7987
    -9.6558  -9.6367  -9.3813  -9.3804  -8.9350  -8.9230  -8.9056  -8.6701
    -8.4853  -8.3484  -8.3365  -7.8219  -7.8200  -7.7268  -7.2938  -7.2822
    -7.0929  -7.0635  -7.0616  -6.5014  -6.4911  -6.2871  -6.2864  -6.0811
    -6.0789  -5.8266  -5.8071  -5.7011  -5.6188  -5.2429  -5.2364  -4.9677
    -4.9486  -4.9435  -4.6291  -4.6286  -4.4926  -4.4920  -4.4532  -4.4264
    -4.3924  -4.2297  -4.2196  -4.1623  -4.1609  -4.0447  -4.0248  -3.6760
    -3.6719  -3.3890  -3.3117  -3.1631  -3.1613  -3.0827  -3.0396  -3.0381
    -3.0268  -2.9609  -2.9253  -2.9217  -2.6768  -2.6754  -2.5266  -2.5079
    -2.5063  -2.5001  -2.3594  -2.3577  -2.3369  -2.2969  -2.2117  -2.2088
    -2.0301  -1.6565  -1.4862  -1.3684  -0.5207  -0.3731  -0.0152  -0.0041
     0.2448   0.3868   0.5650   0.7492   0.7522   0.8561   0.8627   1.0397
     1.1563   1.1683   1.1740   1.2089   1.3431   1.3750   1.4381   1.4427

          k = 0.1333 0.2309 0.0000 ( 48564 PWs)   bands (ev):

   -15.6050 -14.9932 -14.9723 -14.5814 -14.5803 -14.2039 -14.1825 -13.4635
   -13.1471 -13.1306 -12.8139 -12.8124 -12.6157 -12.5869 -12.5822 -12.3635
   -12.0416 -11.3506 -11.3471 -10.9134 -10.9105 -10.5303 -10.5274  -9.7239
    -9.6498  -9.6089  -9.4439  -9.4430  -8.8749  -8.8738  -8.8616  -8.7121
    -8.5673  -8.3471  -8.3354  -7.8194  -7.7384  -7.7365  -7.1808  -7.1694
    -7.0456  -7.0436  -7.0297  -6.5215  -6.5110  -6.2784  -6.2777  -6.1766
    -6.1744  -5.9167  -5.8975  -5.7863  -5.6335  -5.3483  -5.3412  -4.9322
    -4.9131  -4.8699  -4.6169  -4.6164  -4.5075  -4.5066  -4.4640  -4.4396
    -4.4308  -4.1853  -4.1753  -4.1106  -4.1089  -4.1088  -4.0893  -3.6953
    -3.6906  -3.3101  -3.2481  -3.0915  -3.0895  -3.0637  -2.9957  -2.9911
    -2.9903  -2.9302  -2.9048  -2.9008  -2.6369  -2.6355  -2.5429  -2.5206
    -2.5190  -2.5170  -2.3828  -2.3606  -2.3297  -2.2607  -2.2568  -2.2477
    -2.0897  -1.6204  -1.4193  -1.3241  -0.5539  -0.4371   0.0175   0.0277
     0.1207   0.3746   0.5464   0.6844   0.6873   0.8383   0.8446   1.0109
     1.1272   1.1309   1.1431   1.2566   1.3284   1.3742   1.4134   1.4181

          k = 0.1167 0.2021 0.0000 ( 48596 PWs)   bands (ev):

   -15.6181 -14.9551 -14.9341 -14.5939 -14.5928 -14.2635 -14.2422 -13.3890
   -13.1169 -13.1003 -12.7770 -12.7754 -12.6397 -12.6150 -12.6049 -12.4176
   -12.0563 -11.3089 -11.3054 -10.9277 -10.9248 -10.5870 -10.5840  -9.6611
    -9.6497  -9.5600  -9.5004  -9.4995  -8.8411  -8.8140  -8.8007  -8.7560
    -8.6465  -8.3478  -8.3363  -7.9076  -7.6517  -7.6497  -7.0683  -7.0571
    -7.0301  -7.0283  -6.9641  -6.5364  -6.5257  -6.2748  -6.2728  -6.2706
    -6.2697  -6.0038  -5.9851  -5.8702  -5.6470  -5.4571  -5.4494  -4.8944
    -4.8752  -4.8039  -4.6070  -4.6064  -4.5213  -4.5204  -4.4979  -4.4812
    -4.4127  -4.1725  -4.1525  -4.1441  -4.1341  -4.0628  -4.0614  -3.7170
    -3.7116  -3.2306  -3.1905  -3.0460  -3.0217  -3.0196  -2.9617  -2.9454
    -2.9441  -2.8990  -2.8816  -2.8765  -2.6017  -2.6001  -2.5579  -2.5341
    -2.5331  -2.5320  -2.4155  -2.3770  -2.3630  -2.3055  -2.3028  -2.1539
    -2.1348  -1.5883  -1.3529  -1.2784  -0.5900  -0.5006  -0.0055   0.0487
     0.0580   0.3581   0.5194   0.6211   0.6240   0.8255   0.8313   0.9709
     1.0906   1.0939   1.1297   1.2622   1.3108   1.3347   1.3897   1.3941

          k = 0.1000 0.1732 0.0000 ( 48574 PWs)   bands (ev):

   -15.6294 -14.9154 -14.8944 -14.6047 -14.6035 -14.3218 -14.3004 -13.3143
   -13.0856 -13.0688 -12.7443 -12.7425 -12.6698 -12.6487 -12.6163 -12.4750
   -12.0691 -11.2655 -11.2619 -10.9400 -10.9371 -10.6438 -10.6408  -9.6707
    -9.5760  -9.5515  -9.5506  -9.5088  -8.8208  -8.7842  -8.7647  -8.7414
    -8.7135  -8.3510  -8.3398  -7.9947  -7.5622  -7.5601  -7.0170  -7.0151
    -6.9541  -6.9436  -6.8947  -6.5467  -6.5356  -6.3738  -6.3717  -6.2660
    -6.2652  -6.0854  -6.0671  -5.9543  -5.6592  -5.5668  -5.5587  -4.8541
    -4.8348  -4.7441  -4.5975  -4.5968  -4.5326  -4.5317  -4.5277  -4.5171
    -4.3983  -4.2337  -4.2138  -4.1037  -4.0940  -4.0179  -4.0165  -3.7368
    -3.7308  -3.1505  -3.1366  -3.0299  -2.9552  -2.9526  -2.9264  -2.9009
    -2.8996  -2.8673  -2.8555  -2.8481  -2.5758  -2.5730  -2.5706  -2.5490
    -2.5467  -2.5452  -2.4521  -2.4034  -2.3853  -2.3490  -2.3465  -2.2186
    -2.0173  -1.5604  -1.2873  -1.2312  -0.6289  -0.5634  -0.1322   0.0783
     0.0867   0.3373   0.4850   0.5607   0.5636   0.8150   0.8202   0.9245
     1.0622   1.0657   1.1178   1.1997   1.3011   1.3577   1.3690   1.3791

          k = 0.0833 0.1443 0.0000 ( 48548 PWs)   bands (ev):

   -15.6391 -14.8742 -14.8532 -14.6138 -14.6126 -14.3788 -14.3575 -13.2398
   -13.0535 -13.0367 -12.7194 -12.7154 -12.6990 -12.6815 -12.6243 -12.5348
   -12.0800 -11.2206 -11.2170 -10.9504 -10.9475 -10.7004 -10.6974  -9.6776
    -9.5948  -9.5939  -9.5029  -9.4555  -8.8625  -8.8091  -8.7471  -8.6896
    -8.6826  -8.3583  -8.3474  -8.0786  -7.4700  -7.4680  -7.0061  -7.0043
    -6.8399  -6.8336  -6.8184  -6.5498  -6.5383  -6.4744  -6.4723  -6.2611
    -6.2604  -6.1629  -6.1452  -6.0382  -5.6813  -5.6707  -5.6668  -4.8122
    -4.7929  -4.6892  -4.5887  -4.5878  -4.5535  -4.5474  -4.5424  -4.5413
    -4.3872  -4.2936  -4.2736  -4.0638  -4.0542  -3.9798  -3.9784  -3.7616
    -3.7550  -3.0927  -3.0705  -3.0176  -2.8951  -2.8911  -2.8879  -2.8583
    -2.8569  -2.8363  -2.8271  -2.8167  -2.5861  -2.5685  -2.5670  -2.5640
    -2.5493  -2.5470  -2.4882  -2.4387  -2.3945  -2.3868  -2.3849  -2.2857
    -1.8989  -1.5366  -1.2225  -1.1827  -0.6707  -0.6252  -0.2581   0.1066
     0.1141   0.3133   0.4462   0.5039   0.5070   0.8052   0.8097   0.8790
     1.0441   1.0482   1.1075   1.1503   1.2797   1.3378   1.3440   1.4378

          k = 0.0667 0.1155 0.0000 ( 48555 PWs)   bands (ev):

   -15.6469 -14.8316 -14.8106 -14.6212 -14.6200 -14.4346 -14.4133 -13.1655
   -13.0207 -13.0036 -12.7403 -12.7230 -12.6890 -12.6847 -12.6306 -12.5970
   -12.0889 -11.1742 -11.1707 -10.9590 -10.9561 -10.7567 -10.7536  -9.6843
    -9.6304  -9.6296  -9.4311  -9.4000  -8.9157  -8.8811  -8.6984  -8.6365
    -8.6281  -8.3697  -8.3591  -8.1611  -7.3758  -7.3737  -6.9974  -6.9956
    -6.7542  -6.7238  -6.7113  -6.5758  -6.5736  -6.5457  -6.5337  -6.2585
    -6.2578  -6.2345  -6.2178  -6.1217  -5.7940  -5.7845  -5.6766  -4.7681
    -4.7488  -4.6462  -4.5830  -4.5811  -4.5736  -4.5712  -4.5504  -4.5493
    -4.3790  -4.3525  -4.3321  -4.0276  -4.0182  -3.9476  -3.9461  -3.7856
    -3.7786  -3.0564  -3.0052  -2.9911  -2.8569  -2.8359  -2.8321  -2.8180
    -2.8165  -2.8042  -2.7963  -2.7828  -2.5997  -2.5844  -2.5825  -2.5794
    -2.5500  -2.5438  -2.5216  -2.4752  -2.4132  -2.4124  -2.4023  -2.3559
    -1.7824  -1.5171  -1.1590  -1.1329  -0.7152  -0.6862  -0.3803   0.1341
     0.1408   0.2875   0.4065   0.4514   0.4546   0.7949   0.7987   0.8393
     1.0367   1.0415   1.0987   1.1139   1.2662   1.3130   1.3188   1.5051

          k = 0.0500 0.0866 0.0000 ( 48567 PWs)   bands (ev):

   -15.6530 -14.7873 -14.7664 -14.6271 -14.6258 -14.4889 -14.4676 -13.0918
   -12.9871 -12.9698 -12.7748 -12.7573 -12.6799 -12.6667 -12.6526 -12.6353
   -12.0957 -11.1264 -11.1228 -10.9657 -10.9628 -10.8123 -10.8092  -9.6893
    -9.6593  -9.6584  -9.3607  -9.3422  -8.9723  -8.9526  -8.6443  -8.5864
    -8.5774  -8.3849  -8.3747  -8.2404  -7.2796  -7.2775  -6.9908  -6.9890
    -6.6794  -6.6776  -6.6754  -6.6073  -6.5954  -6.5349  -6.5223  -6.3017
    -6.2855  -6.2544  -6.2536  -6.2040  -5.9086  -5.8988  -5.6828  -4.7222
    -4.7030  -4.6140  -4.5935  -4.5914  -4.5752  -4.5750  -4.5563  -4.5551
    -4.4098  -4.3919  -4.3700  -3.9930  -3.9838  -3.9226  -3.9212  -3.8105
    -3.8032  -3.0255  -2.9973  -2.9126  -2.8205  -2.7866  -2.7820  -2.7800
    -2.7785  -2.7698  -2.7634  -2.7471  -2.6141  -2.6038  -2.6017  -2.5958
    -2.5754  -2.5593  -2.5493  -2.5134  -2.4329  -2.4230  -2.4184  -2.4087
    -1.6725  -1.5019  -1.0969  -1.0816  -0.7626  -0.7461  -0.4943   0.1612
     0.1670   0.2629   0.3703   0.4038   0.4071   0.7847   0.7879   0.8083
     1.0381   1.0436   1.0872   1.0930   1.2577   1.2889   1.2945   1.5761

          k = 0.0333 0.0577 0.0000 ( 48513 PWs)   bands (ev):

   -15.6573 -14.7417 -14.7209 -14.6314 -14.6298 -14.5416 -14.5204 -13.0184
   -12.9529 -12.9352 -12.8099 -12.7928 -12.7339 -12.6527 -12.6516 -12.6386
   -12.1005 -11.0772 -11.0736 -10.9704 -10.9675 -10.8671 -10.8640  -9.6931
    -9.6795  -9.6786  -9.2916  -9.2821  -9.0317  -9.0221  -8.5857  -8.5397
    -8.5305  -8.4040  -8.3942  -8.3144  -7.1819  -7.1797  -6.9860  -6.9842
    -6.7796  -6.7774  -6.6031  -6.5168  -6.5031  -6.4896  -6.4787  -6.3593
    -6.3437  -6.2847  -6.2524  -6.2516  -6.0232  -6.0131  -5.6873  -4.6748
    -4.6556  -4.6059  -4.6054  -4.5879  -4.5711  -4.5709  -4.5607  -4.5594
    -4.4653  -4.4462  -4.3669  -3.9592  -3.9502  -3.9047  -3.9033  -3.8371
    -3.8294  -3.0040  -2.9913  -2.8352  -2.7844  -2.7458  -2.7450  -2.7430
    -2.7395  -2.7327  -2.7286  -2.7106  -2.6302  -2.6256  -2.6231  -2.6146
    -2.6075  -2.5884  -2.5806  -2.5509  -2.5018  -2.4223  -2.4217  -2.4138
    -1.5769  -1.4910  -1.0366  -1.0288  -0.8127  -0.8044  -0.5927   0.1877
     0.1925   0.2425   0.3415   0.3623   0.3655   0.7757   0.7786   0.7866
     1.0444   1.0508   1.0715   1.0875   1.2525   1.2677   1.2735   1.6500

          k = 0.0167 0.0289 0.0000 ( 48517 PWs)   bands (ev):

   -15.6601 -14.6950 -14.6750 -14.6345 -14.6317 -14.5919 -14.5711 -12.9464
   -12.9185 -12.9001 -12.8447 -12.8287 -12.8015 -12.6442 -12.6441 -12.6408
   -12.1033 -11.0268 -11.0230 -10.9732 -10.9703 -10.9208 -10.9179  -9.6958
    -9.6922  -9.6913  -9.2252  -9.2196  -9.0942  -9.0892  -8.5235  -8.4981
    -8.4885  -8.4296  -8.4203  -8.3860  -7.0827  -7.0805  -6.9832  -6.9814
    -6.8812  -6.8791  -6.5263  -6.4894  -6.4748  -6.4094  -6.3948  -6.3739
    -6.3647  -6.3629  -6.2512  -6.2505  -6.1394  -6.1291  -5.6900  -4.6258
    -4.6132  -4.6131  -4.6070  -4.5725  -4.5692  -4.5689  -4.5635  -4.5613
    -4.5185  -4.4996  -4.3644  -3.9256  -3.9171  -3.8943  -3.8932  -3.8631
    -3.8552  -2.9937  -2.9924  -2.7654  -2.7512  -2.7141  -2.7123  -2.7095
    -2.7056  -2.6973  -2.6928  -2.6766  -2.6495  -2.6480  -2.6468  -2.6388
    -2.6301  -2.6223  -2.6159  -2.5882  -2.5712  -2.4209  -2.4203  -2.4187
    -1.5081  -1.4845  -0.9788  -0.9747  -0.8656  -0.8608  -0.6631   0.2114
     0.2147   0.2289   0.3229   0.3299   0.3325   0.7692   0.7723   0.7741
     1.0502   1.0582   1.0635   1.0845   1.2488   1.2525   1.2589   1.7259

          k = 0.0000 0.0000 0.0000 ( 48515 PWs)   bands (ev):

   -15.6608 -14.6548 -14.6446 -14.6444 -14.6245 -14.6244 -14.6112 -12.8917
   -12.8891 -12.8664 -12.8663 -12.8627 -12.8626 -12.6416 -12.6415 -12.6414
   -12.1043 -10.9824 -10.9732 -10.9717 -10.9716 -10.9696 -10.9673  -9.6970
    -9.6969  -9.6957  -9.1677  -9.1599  -9.1522  -9.1491  -8.4659  -8.4658
    -8.4529  -8.4516  -8.4510  -8.4509  -6.9857  -6.9821  -6.9819  -6.9805
    -6.9791  -6.9782  -6.4602  -6.4601  -6.4420  -6.4418  -6.4365  -6.4352
    -6.2614  -6.2561  -6.2560  -6.2446  -6.2445  -6.2407  -5.6910  -4.6158
    -4.6157  -4.5831  -4.5729  -4.5727  -4.5691  -4.5690  -4.5687  -4.5545
    -4.5544  -4.5431  -4.3636  -3.8969  -3.8937  -3.8937  -3.8838  -3.8836
    -3.8815  -2.9889  -2.9889  -2.7327  -2.7311  -2.6933  -2.6927  -2.6858
    -2.6852  -2.6787  -2.6674  -2.6672  -2.6642  -2.6619  -2.6544  -2.6521
    -2.6502  -2.6357  -2.6354  -2.6154  -2.6153  -2.4218  -2.4210  -2.4209
    -1.4823  -1.4823  -0.9310  -0.9284  -0.9131  -0.9065  -0.6895   0.2239
     0.2240   0.2243   0.3159   0.3170   0.3176   0.7666   0.7699   0.7703
     1.0517   1.0612   1.0623   1.0835   1.2466   1.2469   1.2542   1.7855

          k = 0.0000 0.0289 0.0000 ( 48503 PWs)   bands (ev):

   -15.6602 -14.6901 -14.6605 -14.6530 -14.6130 -14.6072 -14.5764 -12.9290
   -12.9289 -12.8740 -12.8711 -12.8185 -12.8180 -12.6443 -12.6419 -12.6416
   -12.1036 -11.0252 -11.0016 -10.9953 -10.9488 -10.9425 -10.9196  -9.6953
    -9.6945  -9.6918  -9.2166  -9.2108  -9.1029  -9.0978  -8.5083  -8.5079
    -8.4599  -8.4592  -8.4045  -8.4041  -7.0815  -7.0331  -7.0309  -6.9324
    -6.9302  -6.8798  -6.5059  -6.5056  -6.4427  -6.4417  -6.3835  -6.3832
    -6.3689  -6.3091  -6.3085  -6.1936  -6.1921  -6.1335  -5.6901  -4.6208
    -4.6138  -4.6138  -4.5906  -4.5847  -4.5709  -4.5708  -4.5684  -4.5408
    -4.5356  -4.5047  -4.3642  -3.9223  -3.9086  -3.9059  -3.8784  -3.8758
    -3.8572  -2.9908  -2.9894  -2.7529  -2.7529  -2.7103  -2.7085  -2.7059
    -2.7010  -2.6910  -2.6904  -2.6629  -2.6602  -2.6509  -2.6503  -2.6447
    -2.6275  -2.6269  -2.6241  -2.5861  -2.5847  -2.4215  -2.4191  -2.4184
    -1.5018  -1.4840  -0.9714  -0.9672  -0.8730  -0.8680  -0.6696   0.2116
     0.2233   0.2239   0.3232   0.3241   0.3300   0.7685   0.7719   0.7732
     1.0506   1.0592   1.0629   1.0842   1.2490   1.2505   1.2578   1.7403

          k = 0.0000 0.0577 0.0000 ( 48509 PWs)   bands (ev):

[...]
    -9.6451  -9.5574  -9.4957  -9.4898  -8.8257  -8.8210  -8.7479  -8.7476
    -8.5611  -8.5605  -8.1482  -8.1479  -7.5550  -7.2945  -7.2919  -6.9491
    -6.7538  -6.7537  -6.6979  -6.6961  -6.6046  -6.6043  -6.3607  -6.3143
    -6.3134  -6.0478  -6.0475  -5.9145  -5.9137  -5.6674  -5.5566  -4.8535
    -4.6968  -4.6952  -4.6651  -4.6646  -4.5542  -4.5456  -4.5442  -4.3931
    -4.3851  -4.3818  -4.2302  -4.0652  -4.0521  -4.0488  -3.8683  -3.8676
    -3.7064  -3.1024  -3.0274  -3.0273  -3.0220  -2.9272  -2.9249  -2.8579
    -2.8241  -2.8202  -2.8167  -2.6599  -2.6561  -2.6367  -2.6339  -2.5833
    -2.5123  -2.5112  -2.5014  -2.3983  -2.3961  -2.3768  -2.3204  -2.3192
    -1.9229  -1.5395  -1.2169  -1.2124  -0.6391  -0.6346  -0.2344   0.0541
     0.2258   0.2262   0.4996   0.5029   0.5040   0.7633   0.8716   0.8757
     1.0421   1.1012   1.1036   1.1105   1.3093   1.3099   1.3622   1.4550

          k = 0.0000 0.2021 0.0000 ( 48561 PWs)   bands (ev):

   -15.6287 -14.9561 -14.7786 -14.7763 -14.4321 -14.4319 -14.2616 -13.2534
   -13.2528 -12.8604 -12.8569 -12.7842 -12.6622 -12.6618 -12.5195 -12.5179
   -12.0685 -11.3188 -11.1284 -11.1221 -10.7628 -10.7565 -10.5974  -9.6280
    -9.6271  -9.5509  -9.5450  -9.5091  -8.8043  -8.8039  -8.7583  -8.7544
    -8.5953  -8.5948  -8.0966  -8.0963  -7.6426  -7.3476  -7.3450  -7.0622
    -6.7942  -6.7941  -6.6635  -6.6632  -6.6553  -6.6534  -6.2694  -6.2685
    -6.2561  -5.9743  -5.9739  -5.8612  -5.8604  -5.6581  -5.4436  -4.8967
    -4.7138  -4.7124  -4.6974  -4.6968  -4.5473  -4.5207  -4.5202  -4.3998
    -4.3514  -4.3513  -4.1713  -4.1007  -4.0965  -4.0846  -3.8758  -3.8751
    -3.6756  -3.1414  -3.0857  -3.0856  -3.0302  -2.9867  -2.9844  -2.8870
    -2.8488  -2.8446  -2.8355  -2.6608  -2.6570  -2.6417  -2.6389  -2.6144
    -2.5001  -2.4997  -2.4684  -2.3813  -2.3783  -2.3442  -2.2680  -2.2668
    -2.0261  -1.5594  -1.2665  -1.2619  -0.5938  -0.5893  -0.1263   0.0204
     0.2249   0.2252   0.5401   0.5510   0.5526   0.7486   0.9121   0.9164
     1.0644   1.1175   1.1265   1.1279   1.3295   1.3300   1.3858   1.4042

          k = 0.0000 0.2309 0.0000 ( 48579 PWs)   bands (ev):

   -15.6189 -14.9970 -14.7943 -14.7921 -14.3985 -14.3985 -14.2052 -13.3074
   -13.3068 -12.8561 -12.8525 -12.8239 -12.6677 -12.6672 -12.4752 -12.4738
   -12.0574 -11.3643 -11.1451 -11.1387 -10.7277 -10.7214 -10.5443  -9.6070
    -9.6067  -9.6053  -9.6000  -9.4551  -8.8428  -8.8422  -8.7095  -8.7050
    -8.6314  -8.6310  -8.0446  -8.0444  -7.7271  -7.4010  -7.3983  -7.1765
    -6.8319  -6.8319  -6.7223  -6.7220  -6.6147  -6.6129  -6.2204  -6.2195
    -6.1520  -5.8993  -5.8988  -5.8111  -5.8102  -5.6478  -5.3293  -4.9371
    -4.7341  -4.7336  -4.7301  -4.7287  -4.5409  -4.4922  -4.4918  -4.4120
    -4.3166  -4.3166  -4.1456  -4.1438  -4.1126  -4.1113  -3.8861  -3.8854
    -3.6429  -3.1885  -3.1436  -3.1435  -3.0499  -3.0476  -3.0420  -2.9140
    -2.8731  -2.8689  -2.8527  -2.6664  -2.6627  -2.6533  -2.6428  -2.6398
    -2.4944  -2.4943  -2.4345  -2.3581  -2.3544  -2.3096  -2.2182  -2.2169
    -2.1286  -1.5819  -1.3160  -1.3114  -0.5491  -0.5447  -0.0184  -0.0128
     0.2212   0.2212   0.5780   0.6000   0.6023   0.7304   0.9590   0.9633
     1.0947   1.1284   1.1563   1.1589   1.3456   1.3470   1.3653   1.3735

          k = 0.0000 0.2598 0.0000 ( 48583 PWs)   bands (ev):

   -15.6077 -15.0370 -14.8088 -14.8068 -14.3639 -14.3638 -14.1479 -13.3611
   -13.3605 -12.8670 -12.8513 -12.8475 -12.6739 -12.6732 -12.4330 -12.4316
   -12.0447 -11.4085 -11.1605 -11.1541 -10.6915 -10.6852 -10.4925  -9.6605
    -9.6545  -9.5834  -9.5824  -9.3940  -8.8839  -8.8832  -8.6821  -8.6816
    -8.6444  -8.6408  -7.9917  -7.9915  -7.8087  -7.4545  -7.4517  -7.2895
    -6.8670  -6.8670  -6.7802  -6.7799  -6.5760  -6.5742  -6.1673  -6.1664
    -6.0488  -5.8224  -5.8218  -5.7626  -5.7616  -5.6365  -5.2176  -4.9750
    -4.7760  -4.7756  -4.7452  -4.7439  -4.5319  -4.4601  -4.4596  -4.4273
    -4.2800  -4.2800  -4.1956  -4.1944  -4.1377  -4.0512  -3.9000  -3.8994
    -3.6116  -3.2378  -3.2011  -3.2009  -3.1159  -3.1138  -3.0554  -2.9388
    -2.8969  -2.8928  -2.8684  -2.6963  -2.6766  -2.6731  -2.6413  -2.6380
    -2.4934  -2.4929  -2.3997  -2.3297  -2.3256  -2.2748  -2.2290  -2.1712
    -2.1699  -1.6067  -1.3654  -1.3608  -0.5051  -0.5007  -0.0459   0.0882
     0.2138   0.2140   0.6143   0.6475   0.6503   0.7113   1.0109   1.0148
     1.1302   1.1401   1.1913   1.1960   1.3112   1.3194   1.3871   1.3881

          k = 0.0000 0.2887 0.0000 ( 48601 PWs)   bands (ev):

   -15.5953 -15.0760 -14.8220 -14.8200 -14.3282 -14.3280 -14.0900 -13.4143
   -13.4137 -12.9137 -12.8461 -12.8422 -12.6806 -12.6798 -12.3932 -12.3919
   -12.0307 -11.4516 -11.1746 -11.1682 -10.6541 -10.6478 -10.4419  -9.7146
    -9.7086  -9.5576  -9.5566  -9.3291  -8.9233  -8.9224  -8.7203  -8.7199
    -8.5947  -8.5902  -7.9392  -7.9391  -7.8861  -7.5081  -7.5053  -7.4028
    -6.8996  -6.8996  -6.8383  -6.8380  -6.5397  -6.5379  -6.1111  -6.1102
    -5.9471  -5.7448  -5.7440  -5.7151  -5.7139  -5.6243  -5.1070  -5.0117
    -4.8215  -4.8211  -4.7586  -4.7574  -4.5236  -4.4459  -4.4244  -4.4239
    -4.2497  -4.2489  -4.2415  -4.2413  -4.1641  -3.9899  -3.9133  -3.9126
    -3.5815  -3.2930  -3.2579  -3.2577  -3.1843  -3.1822  -3.0711  -2.9612
    -2.9201  -2.9161  -2.8829  -2.7446  -2.6886  -2.6851  -2.6376  -2.6341
    -2.4950  -2.4942  -2.3642  -2.3273  -2.2972  -2.2933  -2.2400  -2.1260
    -2.1247  -1.6337  -1.4146  -1.4100  -0.4617  -0.4573  -0.0779   0.1915
     0.2028   0.2031   0.6450   0.6910   0.6951   0.6967   1.0648   1.0676
     1.1514   1.1689   1.2160   1.2254   1.2930   1.2971   1.4223   1.4249

          k = 0.0000 0.3175 0.0000 ( 48613 PWs)   bands (ev):

   -15.5815 -15.1137 -14.8341 -14.8321 -14.2914 -14.2912 -14.0312 -13.4672
   -13.4666 -12.9632 -12.8403 -12.8361 -12.6879 -12.6869 -12.3560 -12.3547
   -12.0151 -11.4933 -11.1872 -11.1809 -10.6159 -10.6095 -10.3931  -9.7684
    -9.7624  -9.5298  -9.5288  -9.2586  -8.9602  -8.9593  -8.7639  -8.7635
    -8.5402  -8.5357  -7.9593  -7.8868  -7.8867  -7.5619  -7.5590  -7.5132
    -6.9289  -6.9288  -6.8958  -6.8953  -6.5057  -6.5040  -6.0503  -6.0495
    -5.8477  -5.6745  -5.6742  -5.6622  -5.6614  -5.6106  -5.0465  -4.9951
    -4.8705  -4.8700  -4.7711  -4.7699  -4.5152  -4.4681  -4.3853  -4.3848
    -4.3071  -4.3063  -4.2030  -4.2027  -4.1882  -3.9291  -3.9285  -3.9274
    -3.5523  -3.3511  -3.3154  -3.3152  -3.2545  -3.2525  -3.0874  -2.9809
    -2.9424  -2.9385  -2.8960  -2.7955  -2.7011  -2.6976  -2.6324  -2.6287
    -2.4989  -2.4979  -2.4205  -2.3279  -2.2631  -2.2588  -2.2067  -2.0839
    -2.0826  -1.6627  -1.4637  -1.4591  -0.4190  -0.4147  -0.1088   0.1877
     0.1885   0.2911   0.6526   0.7022   0.7328   0.7361   1.1156   1.1161
     1.1644   1.2014   1.2053   1.2127   1.3288   1.3300   1.4670   1.4707

          k = 0.0000 0.3464 0.0000 ( 48605 PWs)   bands (ev):

   -15.5663 -15.1503 -14.8447 -14.8429 -14.2536 -14.2533 -13.9721 -13.5197
   -13.5190 -13.0152 -12.8341 -12.8296 -12.6956 -12.6943 -12.3216 -12.3203
   -11.9982 -11.5337 -11.1986 -11.1923 -10.5764 -10.5701 -10.3465  -9.8216
    -9.8156  -9.4992  -9.4982  -9.1844  -8.9942  -8.9929  -8.8097  -8.8094
    -8.4853  -8.4809  -8.0276  -7.8343  -7.8342  -7.6261  -7.6157  -7.6128
    -6.9609  -6.9603  -6.9473  -6.9462  -6.4747  -6.4730  -5.9877  -5.9869
    -5.7516  -5.6312  -5.6303  -5.5944  -5.5844  -5.5839  -5.0760  -4.9243
    -4.9238  -4.8862  -4.7816  -4.7805  -4.5034  -4.4945  -4.3667  -4.3659
    -4.3429  -4.3423  -4.2130  -4.1629  -4.1628  -3.9433  -3.9426  -3.8651
    -3.5218  -3.4160  -3.3716  -3.3714  -3.3258  -3.3239  -3.1044  -2.9975
    -2.9636  -2.9599  -2.9077  -2.8495  -2.7134  -2.7098  -2.6267  -2.6227
    -2.5090  -2.5038  -2.5024  -2.2910  -2.2269  -2.2225  -2.1751  -2.0440
    -2.0427  -1.6935  -1.5124  -1.5078  -0.3771  -0.3727  -0.1380   0.1693
     0.1704   0.3849   0.6389   0.7293   0.7694   0.7730   1.1415   1.1487
     1.1777   1.1892   1.1935   1.2384   1.3927   1.3927   1.5191   1.5234

          k = 0.0000 0.3753 0.0000 ( 48609 PWs)   bands (ev):

   -15.5500 -15.1855 -14.8540 -14.8522 -14.2149 -14.2146 -13.9122 -13.5715
   -13.5709 -13.0694 -12.8277 -12.8229 -12.7037 -12.7021 -12.2903 -12.2891
   -11.9798 -11.5729 -11.2087 -11.2023 -10.5358 -10.5295 -10.3029  -9.8744
    -9.8683  -9.4667  -9.4657  -9.1070  -9.0252  -9.0230  -8.8567  -8.8563
    -8.4304  -8.4260  -8.0906  -7.7812  -7.7811  -7.7363  -7.6696  -7.6665
    -7.0144  -7.0142  -6.9740  -6.9734  -6.4467  -6.4450  -5.9229  -5.9220
    -5.6612  -5.5933  -5.5914  -5.5777  -5.5036  -5.5031  -5.1007  -4.9798
    -4.9794  -4.7908  -4.7898  -4.7770  -4.5258  -4.4921  -4.4325  -4.4317
    -4.2972  -4.2966  -4.2363  -4.1221  -4.1221  -3.9571  -3.9564  -3.8017
    -3.4927  -3.4842  -3.4266  -3.4264  -3.3977  -3.3959  -3.1233  -3.0108
    -2.9834  -2.9798  -2.9181  -2.9057  -2.7249  -2.7212  -2.6211  -2.6168
    -2.5917  -2.5101  -2.5084  -2.2535  -2.1894  -2.1849  -2.1458  -2.0081
    -2.0069  -1.7260  -1.5607  -1.5562  -0.3360  -0.3314  -0.1652   0.1477
     0.1491   0.4723   0.6224   0.7579   0.8020   0.8057   1.1216   1.1332
     1.1912   1.2142   1.2152   1.2638   1.4650   1.4676   1.5629   1.5645

          k = 0.0000 0.4041 0.0000 ( 48599 PWs)   bands (ev):

   -15.5324 -15.2198 -14.8622 -14.8605 -14.1749 -14.1746 -13.8517 -13.6226
   -13.6219 -13.1254 -12.8209 -12.8157 -12.7121 -12.7100 -12.2626 -12.2613
   -11.9600 -11.6108 -11.2173 -11.2110 -10.4943 -10.4880 -10.2630  -9.9265
    -9.9204  -9.4320  -9.4310  -9.0560  -9.0521  -9.0195  -8.9041  -8.9038
    -8.3754  -8.3712  -8.1475  -7.8448  -7.7279  -7.7278  -7.7236  -7.7204
    -7.0702  -7.0702  -6.9937  -6.9933  -6.4217  -6.4200  -5.8567  -5.8559
    -5.5805  -5.5630  -5.5565  -5.5542  -5.4227  -5.4221  -5.1178  -5.0383
    -5.0379  -4.7989  -4.7978  -4.6707  -4.5622  -4.4979  -4.4969  -4.4800
    -4.2609  -4.2485  -4.2479  -4.0802  -4.0802  -3.9726  -3.9720  -3.7378
    -3.5574  -3.4814  -3.4812  -3.4697  -3.4680  -3.4637  -3.1444  -3.0210
    -3.0014  -2.9979  -2.9637  -2.9271  -2.7353  -2.7316  -2.6680  -2.6153
    -2.6106  -2.5164  -2.5143  -2.2156  -2.1506  -2.1460  -2.1190  -1.9747
    -1.9735  -1.7598  -1.6087  -1.6041  -0.2959  -0.2909  -0.1897   0.1234
     0.1250   0.5519   0.6070   0.7841   0.8309   0.8346   1.0940   1.1056
     1.2049   1.2423   1.2438   1.2814   1.5215   1.5280   1.5899   1.5941

          k = 0.0000 0.4330 0.0000 ( 48595 PWs)   bands (ev):

   -15.5134 -15.2527 -14.8692 -14.8674 -14.1339 -14.1335 -13.7910 -13.6730
   -13.6724 -13.1830 -12.8139 -12.8080 -12.7207 -12.7180 -12.2386 -12.2374
   -11.9387 -11.6474 -11.2247 -11.2183 -10.4517 -10.4454 -10.2274  -9.9780
    -9.9719  -9.3957  -9.3946  -9.0765  -9.0759  -8.9517  -8.9515  -8.9376
    -8.3207  -8.3165  -8.1975  -7.9532  -7.7776  -7.7743  -7.6746  -7.6746
    -7.1269  -7.1269  -7.0103  -7.0099  -6.4002  -6.3985  -5.7875  -5.7866
    -5.5460  -5.5266  -5.5264  -5.5090  -5.3419  -5.3413  -5.1214  -5.0995
    -5.0991  -4.8058  -4.8047  -4.6047  -4.5666  -4.5664  -4.5648  -4.4682
    -4.2833  -4.1970  -4.1962  -4.0374  -4.0374  -3.9860  -3.9854  -3.6737
    -3.6336  -3.5415  -3.5398  -3.5350  -3.5348  -3.4342  -3.1656  -3.0353
    -3.0179  -3.0144  -3.0140  -2.9348  -2.7447  -2.7406  -2.7370  -2.6086
    -2.6033  -2.5229  -2.5203  -2.1772  -2.1110  -2.1062  -2.0953  -1.9461
    -1.9449  -1.7949  -1.6559  -1.6514  -0.2579  -0.2512  -0.2101   0.0967
     0.0986   0.5933   0.6230   0.8066   0.8561   0.8596   1.0684   1.0798
     1.2186   1.2657   1.2675   1.2917   1.5225   1.5265   1.6714   1.6733

          k = 0.0000 0.4619 0.0000 ( 48575 PWs)   bands (ev):

   -15.4933 -15.2839 -14.8749 -14.8731 -14.0918 -14.0914 -13.7298 -13.7228
   -13.7222 -13.2417 -12.8068 -12.8000 -12.7296 -12.7260 -12.2186 -12.2174
   -11.9159 -11.6827 -11.2308 -11.2244 -10.4082 -10.4019 -10.1966 -10.0288
   -10.0226  -9.3572  -9.3560  -9.0962  -9.0961  -8.9993  -8.9992  -8.8506
    -8.2659  -8.2618  -8.2399  -8.0592  -7.8316  -7.8282  -7.6215  -7.6214
    -7.1830  -7.1830  -7.0240  -7.0236  -6.3824  -6.3808  -5.7172  -5.7163
    -5.5271  -5.5014  -5.5014  -5.4604  -5.2600  -5.2597  -5.1621  -5.1618
    -5.1060  -4.8114  -4.8104  -4.6531  -4.6368  -4.6340  -4.4616  -4.4547
    -4.3063  -4.1427  -4.1418  -3.9980  -3.9974  -3.9933  -3.9932  -3.7138
    -3.6121  -3.6104  -3.6097  -3.5880  -3.5878  -3.4026  -3.1897  -3.0895
    -3.0315  -3.0277  -3.0224  -2.9410  -2.7992  -2.7518  -2.7481  -2.6017
    -2.5955  -2.5301  -2.5266  -2.1385  -2.0771  -2.0689  -2.0657  -1.9238
    -1.9227  -1.8310  -1.7025  -1.6980  -0.2385  -0.2124  -0.2094   0.0680
     0.0701   0.5820   0.6845   0.8244   0.8774   0.8808   1.0465   1.0576
     1.2319   1.2845   1.2863   1.2963   1.5069   1.5096   1.7735   1.7741

          k = 0.0000 0.4907 0.0000 ( 48569 PWs)   bands (ev):

   -15.4720 -15.3142 -14.8793 -14.8776 -14.0489 -14.0484 -13.7717 -13.7711
   -13.6684 -13.3011 -12.8000 -12.7918 -12.7385 -12.7335 -12.2029 -12.2017
   -11.8916 -11.7167 -11.2355 -11.2291 -10.3637 -10.3575 -10.1719 -10.0788
   -10.0727  -9.3170  -9.3156  -9.1123  -9.1121  -9.0469  -9.0468  -8.7592
    -8.2744  -8.2113  -8.2073  -8.1639  -7.8856  -7.8822  -7.5673  -7.5673
    -7.2390  -7.2390  -7.0346  -7.0342  -6.3684  -6.3668  -5.6479  -5.6469
    -5.5082  -5.4821  -5.4820  -5.4349  -5.2289  -5.2289  -5.1766  -5.1765
    -5.0698  -4.8156  -4.8147  -4.7134  -4.7094  -4.6989  -4.4370  -4.3603
    -4.3264  -4.0860  -4.0851  -4.0083  -4.0077  -3.9498  -3.9498  -3.7988
    -3.6805  -3.6791  -3.6397  -3.6395  -3.5452  -3.3741  -3.2132  -3.1502
    -3.0423  -3.0387  -3.0185  -2.9459  -2.8532  -2.7578  -2.7541  -2.5956
    -2.5882  -2.5383  -2.5336  -2.0996  -2.0603  -2.0287  -2.0248  -1.9061
    -1.9052  -1.8680  -1.7479  -1.7435  -0.2494  -0.1757  -0.1746   0.0377
     0.0400   0.5730   0.7359   0.8364   0.8947   0.8977   1.0291   1.0399
     1.2445   1.2952   1.2994   1.3021   1.4899   1.4920   1.8551   1.8836

          k = 0.0000 0.5196 0.0000 ( 48597 PWs)   bands (ev):

   -15.4494 -15.3430 -14.8825 -14.8808 -14.0050 -14.0045 -13.8201 -13.8195
   -13.6068 -13.3614 -12.7938 -12.7834 -12.7476 -12.7403 -12.1915 -12.1903
   -11.8662 -11.7493 -11.2387 -11.2324 -10.3184 -10.3122 -10.1536 -10.1283
   -10.1222  -9.2762  -9.2745  -9.1246  -9.1243  -9.0933  -9.0928  -8.6657
    -8.3022  -8.2640  -8.1569  -8.1530  -7.9398  -7.9363  -7.5131  -7.5131
    -7.2948  -7.2948  -7.0421  -7.0417  -6.3582  -6.3566  -5.5783  -5.5771
    -5.4896  -5.4671  -5.4670  -5.4288  -5.2970  -5.2970  -5.0973  -5.0970
    -5.0164  -4.8188  -4.8181  -4.7857  -4.7842  -4.7590  -4.4225  -4.3468
    -4.2615  -4.0275  -4.0265  -4.0156  -4.0153  -3.9088  -3.9088  -3.8847
    -3.7444  -3.7431  -3.6905  -3.6903  -3.4814  -3.3463  -3.2372  -3.2125
    -3.0502  -3.0467  -3.0083  -2.9494  -2.8993  -2.7621  -2.7584  -2.5899
    -2.5804  -2.5472  -2.5403  -2.0607  -2.0485  -1.9880  -1.9843  -1.9056
    -1.8933  -1.8929  -1.7910  -1.7869  -0.2598  -0.1397  -0.1381   0.0062
     0.0089   0.5665   0.7768   0.8417   0.9074   0.9102   1.0165   1.0270
     1.2564   1.2921   1.3106   1.3128   1.4755   1.4773   1.9369   1.9991

          k = 0.0000 0.5485 0.0000 ( 48596 PWs)   bands (ev):

   -15.4266 -15.3699 -14.8843 -14.8826 -13.9601 -13.9596 -13.8676 -13.8670
   -13.5458 -13.4220 -12.7890 -12.7747 -12.7565 -12.7454 -12.1846 -12.1834
   -11.8391 -11.7805 -11.2408 -11.2345 -10.2721 -10.2658 -10.1771 -10.1708
   -10.1423  -9.2343  -9.2317  -9.1432  -9.1425  -9.1272  -9.1267  -8.5694
    -8.3722  -8.3101  -8.1025  -8.0987  -7.9939  -7.9903  -7.4589  -7.4589
    -7.3500  -7.3500  -7.0469  -7.0465  -6.3522  -6.3506  -5.5079  -5.5062
    -5.4728  -5.4581  -5.4577  -5.4351  -5.3654  -5.3647  -5.0174  -5.0169
    -4.9538  -4.8623  -4.8612  -4.8249  -4.8202  -4.8161  -4.4072  -4.3651
    -4.1636  -4.0205  -4.0191  -3.9720  -3.9682  -3.9671  -3.8839  -3.8835
    -3.7894  -3.7887  -3.7380  -3.7378  -3.4211  -3.3199  -3.2738  -3.2650
    -3.0551  -3.0517  -2.9917  -2.9515  -2.9376  -2.7647  -2.7609  -2.5850
    -2.5717  -2.5552  -2.5445  -2.0415  -2.0217  -1.9495  -1.9487  -1.9414
    -1.8892  -1.8879  -1.8281  -1.8251  -0.2664  -0.1057  -0.1043  -0.0249
    -0.0218   0.5625   0.8073   0.8394   0.9154   0.9179   1.0089   1.0192
     1.2669   1.2863   1.3179   1.3201   1.4659   1.4675   2.0196   2.1156

          k = 0.0000 0.5774 0.0000 ( 48666 PWs)   bands (ev):

   -15.4099 -15.3879 -14.8851 -14.8834 -13.9152 -13.9143 -13.9135 -13.9133
   -13.4919 -13.4759 -12.7873 -12.7678 -12.7638 -12.7474 -12.1824 -12.1812
   -11.8133 -11.8079 -11.2417 -11.2353 -10.2265 -10.2236 -10.2200 -10.2176
   -10.1386  -9.2026  -9.1926  -9.1828  -9.1745  -9.1323  -9.1322  -8.4767
    -8.4660  -8.3164  -8.0496  -8.0467  -8.0463  -8.0427  -7.4056  -7.4050
    -7.4046  -7.4040  -7.0494  -7.0490  -6.3503  -6.3487  -5.4650  -5.4591
    -5.4542  -5.4504  -5.4428  -5.4383  -5.4310  -5.4213  -4.9404  -4.9398
    -4.9390  -4.9380  -4.8904  -4.8854  -4.8213  -4.8197  -4.3977  -4.3761
    -4.0829  -4.0596  -4.0232  -4.0163  -3.9136  -3.9127  -3.9111  -3.9100
    -3.7801  -3.7793  -3.7785  -3.7778  -3.3819  -3.3128  -3.3030  -3.2828
    -3.0567  -3.0533  -2.9692  -2.9672  -2.9522  -2.7656  -2.7618  -2.5837
    -2.5655  -2.5622  -2.5466  -2.0391  -1.9853  -1.9803  -1.9265  -1.9247
    -1.8939  -1.8891  -1.8451  -1.8438  -0.2686  -0.0846  -0.0841  -0.0450
    -0.0410   0.5612   0.8251   0.8309   0.9180   0.9205   1.0063   1.0165
     1.2738   1.2810   1.3204   1.3225   1.4622   1.4638   2.0851   2.1266

     Writing output data file Ge+SiC_III__4.0.save/

     init_run     :      3.25s CPU      3.38s WALL (       1 calls)
     electrons    :  27722.27s CPU  27810.41s WALL (       1 calls)

     Called by init_run:
     wfcinit      :      0.00s CPU      0.00s WALL (       1 calls)
     wfcinit:atom :     19.49s CPU     30.86s WALL (      61 calls)
     wfcinit:wfcr :   9663.10s CPU   9677.55s WALL (      61 calls)
     potinit      :      0.88s CPU      0.95s WALL (       1 calls)
     hinit0       :      2.06s CPU      2.08s WALL (       1 calls)

     Called by electrons:
     c_bands      :  27722.27s CPU  27810.41s WALL (       1 calls)
     v_of_rho     :      0.79s CPU      0.84s WALL (       1 calls)
     v_h          :      0.06s CPU      0.06s WALL (       1 calls)
     v_xc         :      0.73s CPU      0.78s WALL (       1 calls)

     Called by c_bands:
     init_us_2    :      9.55s CPU      9.74s WALL (      61 calls)
     cegterg      :  17840.15s CPU  17896.34s WALL (     158 calls)

     Called by sum_band:

     Called by *egterg:
     h_psi        :  16861.62s CPU  16909.82s WALL (    2746 calls)
     g_psi        :     29.93s CPU     29.95s WALL (    2527 calls)
     cdiaghg      :    442.47s CPU    442.57s WALL (    2588 calls)
     cegterg:over :   2876.36s CPU   2876.52s WALL (    2527 calls)
     cegterg:upda :   1892.12s CPU   1903.07s WALL (    2527 calls)
     cegterg:last :    943.61s CPU    943.68s WALL (     280 calls)

     Called by h_psi:
     h_psi:pot    :  16829.17s CPU  16855.97s WALL (    2746 calls)
     h_psi:calbec :   4971.36s CPU   4991.16s WALL (    2746 calls)
     vloc_psi     :   7473.38s CPU   7479.83s WALL (    2746 calls)
     add_vuspsi   :   4384.38s CPU   4384.95s WALL (    2746 calls)

     General routines
     calbec       :   4971.34s CPU   4991.15s WALL (    2746 calls)
     fft          :      0.40s CPU      0.40s WALL (      11 calls)
     fftw         :   6426.52s CPU   6430.03s WALL (  290256 calls)
     davcio       :      0.42s CPU     75.66s WALL (     122 calls)

     Parallel routines

     PWSCF        :     7h42m CPU       42h 7m WALL

      44h

   This run was terminated on:  22:27: 9  18Apr2020            

=------------------------------------------------------------------------------=
   JOB DONE.
=------------------------------------------------------------------------------=
