
     Program BANDS v.6.3 starts on 18Apr2020 at 22:27:11 

     This program is part of the open-source Quantum ESPRESSO suite
     for quantum simulation of materials; please cite
         "P. Giannozzi et al., J. Phys.:Condens. Matter 21 395502 (2009);
         "P. Giannozzi et al., J. Phys.:Condens. Matter 29 465901 (2017);
          URL http://www.quantum-espresso.org", 
     in publications or presentations arising from this work. More details at
     http://www.quantum-espresso.org/quote

     Parallel version (MPI), running on     1 processors

     MPI processes distributed on     1 nodes

     Reading data from directory:
     /home/nano3/Desktop/RAYID/Ge+SiC/Ge+SiC_III/work/Ge+SiC_III__4.0.save/

     IMPORTANT: XC functional enforced from input :
     Exchange-correlation      = PBE ( 1  4  3  4 0 0)
     Any further DFT definition will be discarded
     Please, verify this is what you really want

               file Ge.pbe-mt_fhi.UPF: wavefunction(s)  4d 4f renormalized
               file C.pbe-mt_fhi.UPF: wavefunction(s)  4f renormalized
               file Si.pbe-mt_fhi.UPF: wavefunction(s)  4f renormalized

     G-vector sticks info
     --------------------
     sticks:   dense  smooth     PW     G-vecs:    dense   smooth      PW
     Sum        4429    4429   1177               388955   388955   53541

     high-symmetry point:  0.0000 0.5774 0.0000   x coordinate   0.0000
     high-symmetry point:  0.3333 0.5774 0.0000   x coordinate   0.3333
     high-symmetry point:  0.0000 0.0000 0.0000   x coordinate   1.0000
     high-symmetry point:  0.0000 0.5774 0.0000   x coordinate   1.5774

     Plottable bands (eV) written to file /home/nano3/Desktop/RAYID/Ge+SiC/Ge+SiC_III/OUT/Ge+SiC_III__4.0.band.gnu
     Bands written to file /home/nano3/Desktop/RAYID/Ge+SiC/Ge+SiC_III/OUT/Ge+SiC_III__4.0.band

 **************************************************************************

                    xk=(   0.00000,   0.57735,   0.00000  )

     point group C_s (m)    
     there are  2 classes
     the character table:

       E     s    
A'     1.00  1.00
A''    1.00 -1.00

     the symmetry operations in each class and the name of the first element:

     E        1
                                                                 
     s        2
                                                                 

     Band symmetry, C_s (m)     point group:

     e(  1 -  1) =    -15.40990  eV     1   --> A'             
     e(  2 -  2) =    -15.38788  eV     1   --> A'             
     e(  3 -  3) =    -14.88513  eV     1   --> A''            
     e(  4 -  4) =    -14.88343  eV     1   --> A'             
     e(  5 -  5) =    -13.91519  eV     1   --> A''            
     e(  6 -  6) =    -13.91430  eV     1   --> A'             
     e(  7 -  7) =    -13.91347  eV     1   --> A''            
     e(  8 -  8) =    -13.91327  eV     1   --> A'             
     e(  9 -  9) =    -13.49187  eV     1   --> A'             
     e( 10 - 10) =    -13.47592  eV     1   --> A'             
     e( 11 - 11) =    -12.78732  eV     1   --> A'             
     e( 12 - 12) =    -12.76775  eV     1   --> A''            
     e( 13 - 13) =    -12.76380  eV     1   --> A''            
     e( 14 - 14) =    -12.74739  eV     1   --> A'             
     e( 15 - 15) =    -12.18243  eV     1   --> A''            
     e( 16 - 16) =    -12.18121  eV     1   --> A'             
     e( 17 - 17) =    -11.81330  eV     1   --> A'             
     e( 18 - 18) =    -11.80786  eV     1   --> A'             
     e( 19 - 19) =    -11.24169  eV     1   --> A'             
     e( 20 - 20) =    -11.23532  eV     1   --> A''            
     e( 21 - 21) =    -10.22651  eV     1   --> A'             
     e( 22 - 22) =    -10.22361  eV     1   --> A'             
     e( 23 - 23) =    -10.22002  eV     1   --> A''            
     e( 24 - 24) =    -10.21761  eV     1   --> A''            
     e( 25 - 25) =    -10.13862  eV     1   --> A'             
     e( 26 - 26) =     -9.20256  eV     1   --> A''            
     e( 27 - 27) =     -9.19259  eV     1   --> A'             
     e( 28 - 28) =     -9.18283  eV     1   --> A'             
     e( 29 - 29) =     -9.17446  eV     1   --> A''            
     e( 30 - 31) =     -9.13229  eV     2   --> A'             
     e( 30 - 31) =     -9.13229  eV     2   --> A''            
     e( 32 - 32) =     -8.47674  eV     1   --> A'             
     e( 33 - 33) =     -8.46597  eV     1   --> A'             
     e( 34 - 34) =     -8.31639  eV     1   --> A'             
     e( 35 - 35) =     -8.04963  eV     1   --> A'             
     e( 36 - 36) =     -8.04673  eV     1   --> A'             
     e( 37 - 37) =     -8.04631  eV     1   --> A''            
     e( 38 - 38) =     -8.04266  eV     1   --> A''            
     e( 39 - 39) =     -7.40557  eV     1   --> A'             
     e( 40 - 40) =     -7.40498  eV     1   --> A''            
     e( 41 - 41) =     -7.40459  eV     1   --> A''            
     e( 42 - 42) =     -7.40402  eV     1   --> A'             
     e( 43 - 43) =     -7.04942  eV     1   --> A'             
     e( 44 - 44) =     -7.04900  eV     1   --> A''            
     e( 45 - 45) =     -6.35026  eV     1   --> A'             
     e( 46 - 46) =     -6.34865  eV     1   --> A''            
     e( 47 - 47) =     -5.46502  eV     1   --> A'             
     e( 48 - 48) =     -5.45910  eV     1   --> A''            
     e( 49 - 49) =     -5.45419  eV     1   --> A'             
     e( 50 - 50) =     -5.45041  eV     1   --> A'             
     e( 51 - 51) =     -5.44281  eV     1   --> A'             
     e( 52 - 52) =     -5.43833  eV     1   --> A''            
     e( 53 - 53) =     -5.43096  eV     1   --> A''            
     e( 54 - 54) =     -5.42127  eV     1   --> A'             
     e( 55 - 55) =     -4.94042  eV     1   --> A'             
     e( 56 - 56) =     -4.93984  eV     1   --> A''            
     e( 57 - 57) =     -4.93900  eV     1   --> A'             
     e( 58 - 58) =     -4.93805  eV     1   --> A''            
     e( 59 - 59) =     -4.89039  eV     1   --> A'             
     e( 60 - 60) =     -4.88539  eV     1   --> A'             
     e( 61 - 61) =     -4.82129  eV     1   --> A''            
     e( 62 - 62) =     -4.81968  eV     1   --> A'             
     e( 63 - 63) =     -4.39765  eV     1   --> A''            
     e( 64 - 64) =     -4.37613  eV     1   --> A''            
     e( 65 - 65) =     -4.08292  eV     1   --> A'             
     e( 66 - 66) =     -4.05958  eV     1   --> A'             
     e( 67 - 67) =     -4.02320  eV     1   --> A''            
     e( 68 - 68) =     -4.01633  eV     1   --> A'             
     e( 69 - 69) =     -3.91363  eV     1   --> A'             
     e( 70 - 70) =     -3.91271  eV     1   --> A''            
     e( 71 - 71) =     -3.91111  eV     1   --> A'             
     e( 72 - 72) =     -3.91001  eV     1   --> A''            
     e( 73 - 73) =     -3.78009  eV     1   --> A'             
     e( 74 - 74) =     -3.77934  eV     1   --> A''            
     e( 75 - 75) =     -3.77855  eV     1   --> A''            
     e( 76 - 76) =     -3.77783  eV     1   --> A'             
     e( 77 - 77) =     -3.38194  eV     1   --> A'             
     e( 78 - 78) =     -3.31277  eV     1   --> A'             
     e( 79 - 79) =     -3.30305  eV     1   --> A''            
     e( 80 - 80) =     -3.28283  eV     1   --> A''            
     e( 81 - 81) =     -3.05673  eV     1   --> A'             
     e( 82 - 82) =     -3.05332  eV     1   --> A''            
     e( 83 - 83) =     -2.96925  eV     1   --> A'             
     e( 84 - 84) =     -2.96725  eV     1   --> A'             
     e( 85 - 85) =     -2.95220  eV     1   --> A''            
     e( 86 - 86) =     -2.76565  eV     1   --> A'             
     e( 87 - 87) =     -2.76184  eV     1   --> A''            
     e( 88 - 88) =     -2.58374  eV     1   --> A'             
     e( 89 - 89) =     -2.56547  eV     1   --> A''            
     e( 90 - 90) =     -2.56222  eV     1   --> A''            
     e( 91 - 91) =     -2.54661  eV     1   --> A'             
     e( 92 - 92) =     -2.03913  eV     1   --> A'             
     e( 93 - 93) =     -1.98532  eV     1   --> A''            
     e( 94 - 94) =     -1.98034  eV     1   --> A''            
     e( 95 - 95) =     -1.92648  eV     1   --> A'             
     e( 96 - 96) =     -1.92466  eV     1   --> A''            
     e( 97 - 97) =     -1.89388  eV     1   --> A'             
     e( 98 - 98) =     -1.88906  eV     1   --> A''            
     e( 99 - 99) =     -1.84509  eV     1   --> A'             
     e(100 -100) =     -1.84382  eV     1   --> A''            
     e(101 -101) =     -0.26858  eV     1   --> A'             
     e(102 -102) =     -0.08464  eV     1   --> A'             
     e(103 -103) =     -0.08405  eV     1   --> A''            
     e(104 -104) =     -0.04504  eV     1   --> A'             
     e(105 -105) =     -0.04103  eV     1   --> A''            
     e(106 -106) =      0.56122  eV     1   --> A'             
     e(107 -107) =      0.82513  eV     1   --> A'             
     e(108 -108) =      0.83093  eV     1   --> A'             
     e(109 -109) =      0.91800  eV     1   --> A'             
     e(110 -110) =      0.92045  eV     1   --> A''            
     e(111 -111) =      1.00634  eV     1   --> A''            
     e(112 -112) =      1.01651  eV     1   --> A'             
     e(113 -113) =      1.27376  eV     1   --> A'             
     e(114 -114) =      1.28095  eV     1   --> A'             
     e(115 -115) =      1.32039  eV     1   --> A''            
     e(116 -116) =      1.32254  eV     1   --> A'             
     e(117 -117) =      1.46223  eV     1   --> A'             
     e(118 -118) =      1.46377  eV     1   --> A''            
     e(119 -119) =      2.08514  eV     1   --> A'             
     e(120 -120) =      2.12655  eV     1   --> A'             

 **************************************************************************

 **************************************************************************

                    xk=(   0.01667,   0.57735,   0.00000  )

     point group C_1 (1)    
     there are  1 classes
     the character table:

       E    
A      1.00

     the symmetry operations in each class and the name of the first element:

     E        1
                                                                 

     Band symmetry, C_1 (1)     point group:

     e(  1 -  1) =    -15.40963  eV     1   --> A              
     e(  2 -  2) =    -15.38760  eV     1   --> A              
     e(  3 -  3) =    -14.90916  eV     1   --> A              
     e(  4 -  4) =    -14.85871  eV     1   --> A              
     e(  5 -  5) =    -13.93745  eV     1   --> A              
     e(  6 -  6) =    -13.93608  eV     1   --> A              
     e(  7 -  7) =    -13.89171  eV     1   --> A              
     e(  8 -  8) =    -13.89033  eV     1   --> A              
     e(  9 -  9) =    -13.49153  eV     1   --> A              
     e( 10 - 10) =    -13.47557  eV     1   --> A              
     e( 11 - 11) =    -12.80727  eV     1   --> A              
     e( 12 - 12) =    -12.78529  eV     1   --> A              
     e( 13 - 13) =    -12.74791  eV     1   --> A              
     e( 14 - 14) =    -12.72693  eV     1   --> A              
     e( 15 - 15) =    -12.19269  eV     1   --> A              
     e( 16 - 16) =    -12.17095  eV     1   --> A              
     e( 17 - 17) =    -11.81300  eV     1   --> A              
     e( 18 - 18) =    -11.80756  eV     1   --> A              
     e( 19 - 19) =    -11.26629  eV     1   --> A              
     e( 20 - 20) =    -11.21004  eV     1   --> A              
     e( 21 - 21) =    -10.24246  eV     1   --> A              
     e( 22 - 22) =    -10.24007  eV     1   --> A              
     e( 23 - 23) =    -10.20390  eV     1   --> A              
     e( 24 - 24) =    -10.20180  eV     1   --> A              
     e( 25 - 25) =    -10.13824  eV     1   --> A              
     e( 26 - 26) =     -9.22181  eV     1   --> A              
     e( 27 - 27) =     -9.20946  eV     1   --> A              
     e( 28 - 28) =     -9.16431  eV     1   --> A              
     e( 29 - 29) =     -9.15245  eV     1   --> A              
     e( 30 - 30) =     -9.14520  eV     1   --> A              
     e( 31 - 31) =     -9.11866  eV     1   --> A              
     e( 32 - 32) =     -8.47650  eV     1   --> A              
     e( 33 - 33) =     -8.46574  eV     1   --> A              
     e( 34 - 34) =     -8.31651  eV     1   --> A              
     e( 35 - 35) =     -8.07712  eV     1   --> A              
     e( 36 - 36) =     -8.07411  eV     1   --> A              
     e( 37 - 37) =     -8.01801  eV     1   --> A              
     e( 38 - 38) =     -8.01484  eV     1   --> A              
     e( 39 - 39) =     -7.45420  eV     1   --> A              
     e( 40 - 40) =     -7.45322  eV     1   --> A              
     e( 41 - 41) =     -7.35651  eV     1   --> A              
     e( 42 - 42) =     -7.35556  eV     1   --> A              
     e( 43 - 43) =     -7.08984  eV     1   --> A              
     e( 44 - 44) =     -7.00519  eV     1   --> A              
     e( 45 - 45) =     -6.40634  eV     1   --> A              
     e( 46 - 46) =     -6.29222  eV     1   --> A              
     e( 47 - 47) =     -5.51503  eV     1   --> A              
     e( 48 - 48) =     -5.47443  eV     1   --> A              
     e( 49 - 49) =     -5.46245  eV     1   --> A              
     e( 50 - 50) =     -5.45997  eV     1   --> A              
     e( 51 - 51) =     -5.44259  eV     1   --> A              
     e( 52 - 52) =     -5.40900  eV     1   --> A              
     e( 53 - 53) =     -5.40460  eV     1   --> A              
     e( 54 - 54) =     -5.38988  eV     1   --> A              
     e( 55 - 55) =     -4.94042  eV     1   --> A              
     e( 56 - 56) =     -4.94008  eV     1   --> A              
     e( 57 - 57) =     -4.93742  eV     1   --> A              
     e( 58 - 58) =     -4.93677  eV     1   --> A              
     e( 59 - 59) =     -4.89087  eV     1   --> A              
     e( 60 - 60) =     -4.88579  eV     1   --> A              
     e( 61 - 61) =     -4.84530  eV     1   --> A              
     e( 62 - 62) =     -4.79435  eV     1   --> A              
     e( 63 - 63) =     -4.39743  eV     1   --> A              
     e( 64 - 64) =     -4.37591  eV     1   --> A              
     e( 65 - 65) =     -4.08521  eV     1   --> A              
     e( 66 - 66) =     -4.05978  eV     1   --> A              
     e( 67 - 67) =     -4.05031  eV     1   --> A              
     e( 68 - 68) =     -3.98541  eV     1   --> A              
     e( 69 - 69) =     -3.92284  eV     1   --> A              
     e( 70 - 70) =     -3.92024  eV     1   --> A              
     e( 71 - 71) =     -3.90304  eV     1   --> A              
     e( 72 - 72) =     -3.90045  eV     1   --> A              
     e( 73 - 73) =     -3.80114  eV     1   --> A              
     e( 74 - 74) =     -3.79989  eV     1   --> A              
     e( 75 - 75) =     -3.75718  eV     1   --> A              
     e( 76 - 76) =     -3.75583  eV     1   --> A              
     e( 77 - 77) =     -3.38170  eV     1   --> A              
     e( 78 - 78) =     -3.31255  eV     1   --> A              
     e( 79 - 79) =     -3.30074  eV     1   --> A              
     e( 80 - 80) =     -3.28054  eV     1   --> A              
     e( 81 - 81) =     -3.09448  eV     1   --> A              
     e( 82 - 82) =     -3.01559  eV     1   --> A              
     e( 83 - 83) =     -2.96928  eV     1   --> A              
     e( 84 - 84) =     -2.96728  eV     1   --> A              
     e( 85 - 85) =     -2.95449  eV     1   --> A              
     e( 86 - 86) =     -2.78426  eV     1   --> A              
     e( 87 - 87) =     -2.74246  eV     1   --> A              
     e( 88 - 88) =     -2.60514  eV     1   --> A              
     e( 89 - 89) =     -2.58693  eV     1   --> A              
     e( 90 - 90) =     -2.54195  eV     1   --> A              
     e( 91 - 91) =     -2.52430  eV     1   --> A              
     e( 92 - 92) =     -2.03799  eV     1   --> A              
     e( 93 - 93) =     -1.98651  eV     1   --> A              
     e( 94 - 94) =     -1.98153  eV     1   --> A              
     e( 95 - 95) =     -1.94084  eV     1   --> A              
     e( 96 - 96) =     -1.91040  eV     1   --> A              
     e( 97 - 97) =     -1.90666  eV     1   --> A              
     e( 98 - 98) =     -1.87667  eV     1   --> A              
     e( 99 - 99) =     -1.85741  eV     1   --> A              
     e(100 -100) =     -1.83155  eV     1   --> A              
     e(101 -101) =     -0.26868  eV     1   --> A              
     e(102 -102) =     -0.10424  eV     1   --> A              
     e(103 -103) =     -0.07103  eV     1   --> A              
     e(104 -104) =     -0.05784  eV     1   --> A              
     e(105 -105) =     -0.02107  eV     1   --> A              
     e(106 -106) =      0.56353  eV     1   --> A              
     e(107 -107) =      0.82727  eV     1   --> A              
     e(108 -108) =      0.83307  eV     1   --> A              
     e(109 -109) =      0.89072  eV     1   --> A              
     e(110 -110) =      0.94745  eV     1   --> A              
     e(111 -111) =      1.00529  eV     1   --> A              
     e(112 -112) =      1.01754  eV     1   --> A              
     e(113 -113) =      1.27387  eV     1   --> A              
     e(114 -114) =      1.28105  eV     1   --> A              
     e(115 -115) =      1.29250  eV     1   --> A              
     e(116 -116) =      1.35194  eV     1   --> A              
     e(117 -117) =      1.43801  eV     1   --> A              
     e(118 -118) =      1.48863  eV     1   --> A              
     e(119 -119) =      2.08510  eV     1   --> A              
     e(120 -120) =      2.11815  eV     1   --> A              

 **************************************************************************

 **************************************************************************

                    xk=(   0.03333,   0.57735,   0.00000  )

     Band symmetry, C_1 (1)     point group:

     e(  1 -  1) =    -15.40903  eV     1   --> A              
     e(  2 -  2) =    -15.38699  eV     1   --> A              
     e(  3 -  3) =    -14.93391  eV     1   --> A              
     e(  4 -  4) =    -14.83280  eV     1   --> A              
     e(  5 -  5) =    -13.95984  eV     1   --> A              
     e(  6 -  6) =    -13.95847  eV     1   --> A              
     e(  7 -  7) =    -13.86853  eV     1   --> A              
     e(  8 -  8) =    -13.86715  eV     1   --> A              
     e(  9 -  9) =    -13.49097  eV     1   --> A              
     e( 10 - 10) =    -13.47501  eV     1   --> A              
     e( 11 - 11) =    -12.83527  eV     1   --> A              
     e( 12 - 12) =    -12.81351  eV     1   --> A              
     e( 13 - 13) =    -12.72190  eV     1   --> A              
     e( 14 - 14) =    -12.70068  eV     1   --> A              
     e( 15 - 15) =    -12.20376  eV     1   --> A              
     e( 16 - 16) =    -12.16032  eV     1   --> A              
     e( 17 - 17) =    -11.81223  eV     1   --> A              
     e( 18 - 18) =    -11.80679  eV     1   --> A              
     e( 19 - 19) =    -11.29356  eV     1   --> A              
     e( 20 - 20) =    -11.18150  eV     1   --> A              
     e( 21 - 21) =    -10.26171  eV     1   --> A              
     e( 22 - 22) =    -10.25926  eV     1   --> A              
     e( 23 - 23) =    -10.18561  eV     1   --> A              
     e( 24 - 24) =    -10.18359  eV     1   --> A              
     e( 25 - 25) =    -10.13741  eV     1   --> A              
     e( 26 - 26) =     -9.24634  eV     1   --> A              
     e( 27 - 27) =     -9.23398  eV     1   --> A              
     e( 28 - 28) =     -9.15813  eV     1   --> A              
     e( 29 - 29) =     -9.13633  eV     1   --> A              
     e( 30 - 30) =     -9.12402  eV     1   --> A              
     e( 31 - 31) =     -9.10481  eV     1   --> A              
     e( 32 - 32) =     -8.47616  eV     1   --> A              
     e( 33 - 33) =     -8.46540  eV     1   --> A              
     e( 34 - 34) =     -8.31691  eV     1   --> A              
     e( 35 - 35) =     -8.10566  eV     1   --> A              
     e( 36 - 36) =     -8.10270  eV     1   --> A              
     e( 37 - 37) =     -7.98788  eV     1   --> A              
     e( 38 - 38) =     -7.98467  eV     1   --> A              
     e( 39 - 39) =     -7.50491  eV     1   --> A              
     e( 40 - 40) =     -7.50391  eV     1   --> A              
     e( 41 - 41) =     -7.30799  eV     1   --> A              
     e( 42 - 42) =     -7.30706  eV     1   --> A              
     e( 43 - 43) =     -7.12882  eV     1   --> A              
     e( 44 - 44) =     -6.96122  eV     1   --> A              
     e( 45 - 45) =     -6.46331  eV     1   --> A              
     e( 46 - 46) =     -6.23515  eV     1   --> A              
     e( 47 - 47) =     -5.57265  eV     1   --> A              
     e( 48 - 48) =     -5.50516  eV     1   --> A              
     e( 49 - 49) =     -5.49337  eV     1   --> A              
     e( 50 - 50) =     -5.45986  eV     1   --> A              
     e( 51 - 51) =     -5.44229  eV     1   --> A              
     e( 52 - 52) =     -5.37718  eV     1   --> A              
     e( 53 - 53) =     -5.36798  eV     1   --> A              
     e( 54 - 54) =     -5.33656  eV     1   --> A              
     e( 55 - 55) =     -4.94058  eV     1   --> A              
     e( 56 - 56) =     -4.94029  eV     1   --> A              
     e( 57 - 57) =     -4.93536  eV     1   --> A              
     e( 58 - 58) =     -4.93482  eV     1   --> A              
     e( 59 - 59) =     -4.89275  eV     1   --> A              
     e( 60 - 60) =     -4.88725  eV     1   --> A              
     e( 61 - 61) =     -4.86926  eV     1   --> A              
     e( 62 - 62) =     -4.76790  eV     1   --> A              
     e( 63 - 63) =     -4.40095  eV     1   --> A              
     e( 64 - 64) =     -4.37943  eV     1   --> A              
     e( 65 - 65) =     -4.09966  eV     1   --> A              
     e( 66 - 66) =     -4.07101  eV     1   --> A              
     e( 67 - 67) =     -4.06147  eV     1   --> A              
     e( 68 - 68) =     -3.95226  eV     1   --> A              
     e( 69 - 69) =     -3.93219  eV     1   --> A              
     e( 70 - 70) =     -3.92962  eV     1   --> A              
     e( 71 - 71) =     -3.89237  eV     1   --> A              
     e( 72 - 72) =     -3.88981  eV     1   --> A              
     e( 73 - 73) =     -3.82124  eV     1   --> A              
     e( 74 - 74) =     -3.82008  eV     1   --> A              
     e( 75 - 75) =     -3.73414  eV     1   --> A              
     e( 76 - 76) =     -3.73276  eV     1   --> A              
     e( 77 - 77) =     -3.38112  eV     1   --> A              
     e( 78 - 78) =     -3.31205  eV     1   --> A              
     e( 79 - 79) =     -3.30303  eV     1   --> A              
     e( 80 - 80) =     -3.28289  eV     1   --> A              
     e( 81 - 81) =     -3.13387  eV     1   --> A              
     e( 82 - 82) =     -2.97661  eV     1   --> A              
     e( 83 - 83) =     -2.96935  eV     1   --> A              
     e( 84 - 84) =     -2.96732  eV     1   --> A              
     e( 85 - 85) =     -2.96120  eV     1   --> A              
     e( 86 - 86) =     -2.80391  eV     1   --> A              
     e( 87 - 87) =     -2.72069  eV     1   --> A              
     e( 88 - 88) =     -2.63511  eV     1   --> A              
     e( 89 - 89) =     -2.61731  eV     1   --> A              
     e( 90 - 90) =     -2.51384  eV     1   --> A              
     e( 91 - 91) =     -2.49589  eV     1   --> A              
     e( 92 - 92) =     -2.03466  eV     1   --> A              
     e( 93 - 93) =     -1.99005  eV     1   --> A              
     e( 94 - 94) =     -1.98507  eV     1   --> A              
     e( 95 - 95) =     -1.95614  eV     1   --> A              
     e( 96 - 96) =     -1.92194  eV     1   --> A              
     e( 97 - 97) =     -1.89459  eV     1   --> A              
     e( 98 - 98) =     -1.87042  eV     1   --> A              
     e( 99 - 99) =     -1.86266  eV     1   --> A              
     e(100 -100) =     -1.81735  eV     1   --> A              
     e(101 -101) =     -0.26901  eV     1   --> A              
     e(102 -102) =     -0.12416  eV     1   --> A              
     e(103 -103) =     -0.08864  eV     1   --> A              
     e(104 -104) =     -0.04106  eV     1   --> A              
     e(105 -105) =      0.00131  eV     1   --> A              
     e(106 -106) =      0.57042  eV     1   --> A              
     e(107 -107) =      0.83364  eV     1   --> A              
     e(108 -108) =      0.83943  eV     1   --> A              
     e(109 -109) =      0.86209  eV     1   --> A              
     e(110 -110) =      0.97456  eV     1   --> A              
     e(111 -111) =      1.00345  eV     1   --> A              
     e(112 -112) =      1.01977  eV     1   --> A              
     e(113 -113) =      1.26474  eV     1   --> A              
     e(114 -114) =      1.27430  eV     1   --> A              
     e(115 -115) =      1.28145  eV     1   --> A              
     e(116 -116) =      1.38271  eV     1   --> A              
     e(117 -117) =      1.41417  eV     1   --> A              
     e(118 -118) =      1.51439  eV     1   --> A              
     e(119 -119) =      2.07610  eV     1   --> A              
     e(120 -120) =      2.08529  eV     1   --> A              

 **************************************************************************

 **************************************************************************

                    xk=(   0.05000,   0.57735,   0.00000  )

     Band symmetry, C_1 (1)     point group:

     e(  1 -  1) =    -15.40790  eV     1   --> A              
     e(  2 -  2) =    -15.38585  eV     1   --> A              
     e(  3 -  3) =    -14.95829  eV     1   --> A              
     e(  4 -  4) =    -14.80651  eV     1   --> A              
     e(  5 -  5) =    -13.98203  eV     1   --> A              
     e(  6 -  6) =    -13.98066  eV     1   --> A              
     e(  7 -  7) =    -13.84498  eV     1   --> A              
     e(  8 -  8) =    -13.84360  eV     1   --> A              
     e(  9 -  9) =    -13.48996  eV     1   --> A              
     e( 10 - 10) =    -13.47400  eV     1   --> A              
     e( 11 - 11) =    -12.86458  eV     1   --> A              
     e( 12 - 12) =    -12.84290  eV     1   --> A              
     e( 13 - 13) =    -12.69615  eV     1   --> A              
     e( 14 - 14) =    -12.67485  eV     1   --> A              
     e( 15 - 15) =    -12.21506  eV     1   --> A              
     e( 16 - 16) =    -12.15000  eV     1   --> A              
     e( 17 - 17) =    -11.81101  eV     1   --> A              
     e( 18 - 18) =    -11.80557  eV     1   --> A              
     e( 19 - 19) =    -11.32043  eV     1   --> A              
     e( 20 - 20) =    -11.15257  eV     1   --> A              
     e( 21 - 21) =    -10.28131  eV     1   --> A              
     e( 22 - 22) =    -10.27879  eV     1   --> A              
     e( 23 - 23) =    -10.16780  eV     1   --> A              
     e( 24 - 24) =    -10.16589  eV     1   --> A              
     e( 25 - 25) =    -10.13590  eV     1   --> A              
     e( 26 - 26) =     -9.26945  eV     1   --> A              
     e( 27 - 27) =     -9.25712  eV     1   --> A              
     e( 28 - 28) =     -9.17178  eV     1   --> A              
     e( 29 - 29) =     -9.10890  eV     1   --> A              
     e( 30 - 30) =     -9.09696  eV     1   --> A              
     e( 31 - 31) =     -9.08700  eV     1   --> A              
     e( 32 - 32) =     -8.47546  eV     1   --> A              
     e( 33 - 33) =     -8.46471  eV     1   --> A              
     e( 34 - 34) =     -8.31756  eV     1   --> A              
     e( 35 - 35) =     -8.13355  eV     1   --> A              
     e( 36 - 36) =     -8.13068  eV     1   --> A              
     e( 37 - 37) =     -7.95735  eV     1   --> A              
     e( 38 - 38) =     -7.95410  eV     1   --> A              
     e( 39 - 39) =     -7.55551  eV     1   --> A              
     e( 40 - 40) =     -7.55451  eV     1   --> A              
     e( 41 - 41) =     -7.26011  eV     1   --> A              
     e( 42 - 42) =     -7.25921  eV     1   --> A              
     e( 43 - 43) =     -7.16695  eV     1   --> A              
     e( 44 - 44) =     -6.91622  eV     1   --> A              
     e( 45 - 45) =     -6.52023  eV     1   --> A              
     e( 46 - 46) =     -6.17826  eV     1   --> A              
     e( 47 - 47) =     -5.63051  eV     1   --> A              
     e( 48 - 48) =     -5.53619  eV     1   --> A              
     e( 49 - 49) =     -5.52460  eV     1   --> A              
     e( 50 - 50) =     -5.45863  eV     1   --> A              
     e( 51 - 51) =     -5.44116  eV     1   --> A              
     e( 52 - 52) =     -5.34588  eV     1   --> A              
     e( 53 - 53) =     -5.33579  eV     1   --> A              
     e( 54 - 54) =     -5.27941  eV     1   --> A              
     e( 55 - 55) =     -4.94104  eV     1   --> A              
     e( 56 - 56) =     -4.94076  eV     1   --> A              
     e( 57 - 57) =     -4.93253  eV     1   --> A              
     e( 58 - 58) =     -4.93202  eV     1   --> A              
     e( 59 - 59) =     -4.89912  eV     1   --> A              
     e( 60 - 60) =     -4.89042  eV     1   --> A              
     e( 61 - 61) =     -4.88823  eV     1   --> A              
     e( 62 - 62) =     -4.74092  eV     1   --> A              
     e( 63 - 63) =     -4.40644  eV     1   --> A              
     e( 64 - 64) =     -4.38493  eV     1   --> A              
     e( 65 - 65) =     -4.12891  eV     1   --> A              
     e( 66 - 66) =     -4.07853  eV     1   --> A              
     e( 67 - 67) =     -4.06411  eV     1   --> A              
     e( 68 - 68) =     -3.94170  eV     1   --> A              
     e( 69 - 69) =     -3.93919  eV     1   --> A              
     e( 70 - 70) =     -3.92027  eV     1   --> A              
     e( 71 - 71) =     -3.88109  eV     1   --> A              
     e( 72 - 72) =     -3.87856  eV     1   --> A              
     e( 73 - 73) =     -3.84015  eV     1   --> A              
     e( 74 - 74) =     -3.83915  eV     1   --> A              
     e( 75 - 75) =     -3.71093  eV     1   --> A              
     e( 76 - 76) =     -3.70953  eV     1   --> A              
     e( 77 - 77) =     -3.37991  eV     1   --> A              
     e( 78 - 78) =     -3.31096  eV     1   --> A              
     e( 79 - 79) =     -3.30553  eV     1   --> A              
     e( 80 - 80) =     -3.28551  eV     1   --> A              
     e( 81 - 81) =     -3.17321  eV     1   --> A              
     e( 82 - 82) =     -2.97270  eV     1   --> A              
     e( 83 - 83) =     -2.96961  eV     1   --> A              
     e( 84 - 84) =     -2.96766  eV     1   --> A              
     e( 85 - 85) =     -2.93708  eV     1   --> A              
     e( 86 - 86) =     -2.82279  eV     1   --> A              
     e( 87 - 87) =     -2.69829  eV     1   --> A              
     e( 88 - 88) =     -2.66620  eV     1   --> A              
     e( 89 - 89) =     -2.64884  eV     1   --> A              
     e( 90 - 90) =     -2.48588  eV     1   --> A              
     e( 91 - 91) =     -2.46781  eV     1   --> A              
     e( 92 - 92) =     -2.02928  eV     1   --> A              
     e( 93 - 93) =     -1.99590  eV     1   --> A              
     e( 94 - 94) =     -1.99092  eV     1   --> A              
     e( 95 - 95) =     -1.97177  eV     1   --> A              
     e( 96 - 96) =     -1.93758  eV     1   --> A              
     e( 97 - 97) =     -1.88460  eV     1   --> A              
     e( 98 - 98) =     -1.87969  eV     1   --> A              
     e( 99 - 99) =     -1.84924  eV     1   --> A              
     e(100 -100) =     -1.80543  eV     1   --> A              
     e(101 -101) =     -0.26954  eV     1   --> A              
     e(102 -102) =     -0.14376  eV     1   --> A              
     e(103 -103) =     -0.10940  eV     1   --> A              
     e(104 -104) =     -0.02070  eV     1   --> A              
     e(105 -105) =      0.02392  eV     1   --> A              
     e(106 -106) =      0.58187  eV     1   --> A              
     e(107 -107) =      0.83337  eV     1   --> A              
     e(108 -108) =      0.84420  eV     1   --> A              
     e(109 -109) =      0.84994  eV     1   --> A              
     e(110 -110) =      0.99306  eV     1   --> A              
     e(111 -111) =      1.00894  eV     1   --> A              
     e(112 -112) =      1.02225  eV     1   --> A              
     e(113 -113) =      1.23879  eV     1   --> A              
     e(114 -114) =      1.27480  eV     1   --> A              
     e(115 -115) =      1.28199  eV     1   --> A              
     e(116 -116) =      1.38658  eV     1   --> A              
     e(117 -117) =      1.41879  eV     1   --> A              
     e(118 -118) =      1.54034  eV     1   --> A              
     e(119 -119) =      2.03874  eV     1   --> A              
     e(120 -120) =      2.08435  eV     1   --> A              

 **************************************************************************

 **************************************************************************

                    xk=(   0.06667,   0.57735,   0.00000  )

     Band symmetry, C_1 (1)     point group:

     e(  1 -  1) =    -15.40637  eV     1   --> A              
     e(  2 -  2) =    -15.38430  eV     1   --> A              
     e(  3 -  3) =    -14.98227  eV     1   --> A              
     e(  4 -  4) =    -14.78009  eV     1   --> A              
     e(  5 -  5) =    -14.00385  eV     1   --> A              
     e(  6 -  6) =    -14.00249  eV     1   --> A              
     e(  7 -  7) =    -13.82115  eV     1   --> A              
     e(  8 -  8) =    -13.81977  eV     1   --> A              
     e(  9 -  9) =    -13.48864  eV     1   --> A              
     e( 10 - 10) =    -13.47268  eV     1   --> A              
     e( 11 - 11) =    -12.89454  eV     1   --> A              
     e( 12 - 12) =    -12.87289  eV     1   --> A              
     e( 13 - 13) =    -12.67109  eV     1   --> A              
     e( 14 - 14) =    -12.64975  eV     1   --> A              
     e( 15 - 15) =    -12.22647  eV     1   --> A              
     e( 16 - 16) =    -12.14002  eV     1   --> A              
     e( 17 - 17) =    -11.80931  eV     1   --> A              
     e( 18 - 18) =    -11.80387  eV     1   --> A              
     e( 19 - 19) =    -11.34689  eV     1   --> A              
     e( 20 - 20) =    -11.12324  eV     1   --> A              
     e( 21 - 21) =    -10.30109  eV     1   --> A              
     e( 22 - 22) =    -10.29849  eV     1   --> A              
     e( 23 - 23) =    -10.15054  eV     1   --> A              
     e( 24 - 24) =    -10.14875  eV     1   --> A              
     e( 25 - 25) =    -10.13396  eV     1   --> A              
     e( 26 - 26) =     -9.29166  eV     1   --> A              
     e( 27 - 27) =     -9.27936  eV     1   --> A              
     e( 28 - 28) =     -9.18564  eV     1   --> A              
     e( 29 - 29) =     -9.08909  eV     1   --> A              
     e( 30 - 30) =     -9.07068  eV     1   --> A              
     e( 31 - 31) =     -9.05960  eV     1   --> A              
     e( 32 - 32) =     -8.47456  eV     1   --> A              
     e( 33 - 33) =     -8.46383  eV     1   --> A              
     e( 34 - 34) =     -8.31849  eV     1   --> A              
     e( 35 - 35) =     -8.16062  eV     1   --> A              
     e( 36 - 36) =     -8.15782  eV     1   --> A              
     e( 37 - 37) =     -7.92651  eV     1   --> A              
     e( 38 - 38) =     -7.92324  eV     1   --> A              
     e( 39 - 39) =     -7.60639  eV     1   --> A              
     e( 40 - 40) =     -7.60538  eV     1   --> A              
     e( 41 - 41) =     -7.21271  eV     1   --> A              
     e( 42 - 42) =     -7.21180  eV     1   --> A              
     e( 43 - 43) =     -7.20375  eV     1   --> A              
     e( 44 - 44) =     -6.87010  eV     1   --> A              
     e( 45 - 45) =     -6.57706  eV     1   --> A              
     e( 46 - 46) =     -6.12147  eV     1   --> A              
     e( 47 - 47) =     -5.68786  eV     1   --> A              
     e( 48 - 48) =     -5.56724  eV     1   --> A              
     e( 49 - 49) =     -5.55578  eV     1   --> A              
     e( 50 - 50) =     -5.45767  eV     1   --> A              
     e( 51 - 51) =     -5.44024  eV     1   --> A              
     e( 52 - 52) =     -5.31415  eV     1   --> A              
     e( 53 - 53) =     -5.30371  eV     1   --> A              
     e( 54 - 54) =     -5.22177  eV     1   --> A              
     e( 55 - 55) =     -4.94111  eV     1   --> A              
     e( 56 - 56) =     -4.94075  eV     1   --> A              
     e( 57 - 57) =     -4.92895  eV     1   --> A              
     e( 58 - 58) =     -4.92847  eV     1   --> A              
     e( 59 - 59) =     -4.91918  eV     1   --> A              
     e( 60 - 60) =     -4.89616  eV     1   --> A              
     e( 61 - 61) =     -4.89229  eV     1   --> A              
     e( 62 - 62) =     -4.71485  eV     1   --> A              
     e( 63 - 63) =     -4.41364  eV     1   --> A              
     e( 64 - 64) =     -4.39213  eV     1   --> A              
     e( 65 - 65) =     -4.16260  eV     1   --> A              
     e( 66 - 66) =     -4.08359  eV     1   --> A              
     e( 67 - 67) =     -4.06803  eV     1   --> A              
     e( 68 - 68) =     -3.95178  eV     1   --> A              
     e( 69 - 69) =     -3.94941  eV     1   --> A              
     e( 70 - 70) =     -3.88871  eV     1   --> A              
     e( 71 - 71) =     -3.86906  eV     1   --> A              
     e( 72 - 72) =     -3.86659  eV     1   --> A              
     e( 73 - 73) =     -3.85720  eV     1   --> A              
     e( 74 - 74) =     -3.85644  eV     1   --> A              
     e( 75 - 75) =     -3.68657  eV     1   --> A              
     e( 76 - 76) =     -3.68516  eV     1   --> A              
     e( 77 - 77) =     -3.37825  eV     1   --> A              
     e( 78 - 79) =     -3.30955  eV     2   -->   2 A              
     e( 80 - 80) =     -3.28967  eV     1   --> A              
     e( 81 - 81) =     -3.21245  eV     1   --> A              
     e( 82 - 82) =     -2.98798  eV     1   --> A              
     e( 83 - 83) =     -2.96996  eV     1   --> A              
     e( 84 - 84) =     -2.96796  eV     1   --> A              
     e( 85 - 85) =     -2.89889  eV     1   --> A              
     e( 86 - 86) =     -2.84060  eV     1   --> A              
     e( 87 - 87) =     -2.69868  eV     1   --> A              
     e( 88 - 88) =     -2.68191  eV     1   --> A              
     e( 89 - 89) =     -2.67517  eV     1   --> A              
     e( 90 - 90) =     -2.45877  eV     1   --> A              
     e( 91 - 91) =     -2.44062  eV     1   --> A              
     e( 92 - 92) =     -2.02222  eV     1   --> A              
     e( 93 - 93) =     -2.00394  eV     1   --> A              
     e( 94 - 94) =     -1.99900  eV     1   --> A              
     e( 95 - 95) =     -1.98724  eV     1   --> A              
     e( 96 - 96) =     -1.95347  eV     1   --> A              
     e( 97 - 97) =     -1.89796  eV     1   --> A              
     e( 98 - 98) =     -1.86644  eV     1   --> A              
     e( 99 - 99) =     -1.83643  eV     1   --> A              
     e(100 -100) =     -1.79421  eV     1   --> A              
     e(101 -101) =     -0.27032  eV     1   --> A              
     e(102 -102) =     -0.16287  eV     1   --> A              
     e(103 -103) =     -0.12985  eV     1   --> A              
     e(104 -104) =     -0.00015  eV     1   --> A              
     e(105 -105) =      0.04660  eV     1   --> A              
     e(106 -106) =      0.59780  eV     1   --> A              
     e(107 -107) =      0.80473  eV     1   --> A              
     e(108 -108) =      0.85870  eV     1   --> A              
     e(109 -109) =      0.86444  eV     1   --> A              
     e(110 -110) =      0.99241  eV     1   --> A              
     e(111 -111) =      1.02420  eV     1   --> A              
     e(112 -112) =      1.03294  eV     1   --> A              
     e(113 -113) =      1.21445  eV     1   --> A              
     e(114 -114) =      1.27558  eV     1   --> A              
     e(115 -115) =      1.28277  eV     1   --> A              
     e(116 -116) =      1.36359  eV     1   --> A              
     e(117 -117) =      1.45159  eV     1   --> A              
     e(118 -118) =      1.56630  eV     1   --> A              
     e(119 -119) =      2.00115  eV     1   --> A              
     e(120 -120) =      2.06048  eV     1   --> A              

 **************************************************************************

 **************************************************************************

                    xk=(   0.08333,   0.57735,   0.00000  )

     Band symmetry, C_1 (1)     point group:

     e(  1 -  1) =    -15.40436  eV     1   --> A              
     e(  2 -  2) =    -15.38228  eV     1   --> A              
     e(  3 -  3) =    -15.00573  eV     1   --> A              
     e(  4 -  4) =    -14.75311  eV     1   --> A              
     e(  5 -  5) =    -14.02541  eV     1   --> A              
     e(  6 -  6) =    -14.02405  eV     1   --> A              
     e(  7 -  7) =    -13.79704  eV     1   --> A              
     e(  8 -  8) =    -13.79565  eV     1   --> A              
     e(  9 -  9) =    -13.48702  eV     1   --> A              
     e( 10 - 10) =    -13.47106  eV     1   --> A              
     e( 11 - 11) =    -12.92505  eV     1   --> A              
     e( 12 - 12) =    -12.90342  eV     1   --> A              
     e( 13 - 13) =    -12.64685  eV     1   --> A              
     e( 14 - 14) =    -12.62549  eV     1   --> A              
     e( 15 - 15) =    -12.23798  eV     1   --> A              
     e( 16 - 16) =    -12.13030  eV     1   --> A              
     e( 17 - 17) =    -11.80710  eV     1   --> A              
     e( 18 - 18) =    -11.80166  eV     1   --> A              
     e( 19 - 19) =    -11.37310  eV     1   --> A              
     e( 20 - 20) =    -11.09347  eV     1   --> A              
     e( 21 - 21) =    -10.32095  eV     1   --> A              
     e( 22 - 22) =    -10.31829  eV     1   --> A              
     e( 23 - 23) =    -10.13409  eV     1   --> A              
     e( 24 - 24) =    -10.13241  eV     1   --> A              
     e( 25 - 25) =    -10.13095  eV     1   --> A              
     e( 26 - 26) =     -9.31215  eV     1   --> A              
     e( 27 - 27) =     -9.29988  eV     1   --> A              
     e( 28 - 28) =     -9.19967  eV     1   --> A              
     e( 29 - 29) =     -9.07619  eV     1   --> A              
     e( 30 - 30) =     -9.03921  eV     1   --> A              
     e( 31 - 31) =     -9.02743  eV     1   --> A              
     e( 32 - 32) =     -8.47342  eV     1   --> A              
     e( 33 - 33) =     -8.46270  eV     1   --> A              
     e( 34 - 34) =     -8.31974  eV     1   --> A              
     e( 35 - 35) =     -8.18670  eV     1   --> A              
     e( 36 - 36) =     -8.18401  eV     1   --> A              
     e( 37 - 37) =     -7.89550  eV     1   --> A              
     e( 38 - 38) =     -7.89220  eV     1   --> A              
     e( 39 - 39) =     -7.65736  eV     1   --> A              
     e( 40 - 40) =     -7.65635  eV     1   --> A              
     e( 41 - 41) =     -7.23852  eV     1   --> A              
     e( 42 - 42) =     -7.16638  eV     1   --> A              
     e( 43 - 43) =     -7.16553  eV     1   --> A              
     e( 44 - 44) =     -6.82293  eV     1   --> A              
     e( 45 - 45) =     -6.63362  eV     1   --> A              
     e( 46 - 46) =     -6.06496  eV     1   --> A              
     e( 47 - 47) =     -5.74652  eV     1   --> A              
     e( 48 - 48) =     -5.59795  eV     1   --> A              
     e( 49 - 49) =     -5.58659  eV     1   --> A              
     e( 50 - 50) =     -5.45628  eV     1   --> A              
     e( 51 - 51) =     -5.43891  eV     1   --> A              
     e( 52 - 52) =     -5.28220  eV     1   --> A              
     e( 53 - 53) =     -5.27159  eV     1   --> A              
     e( 54 - 54) =     -5.16349  eV     1   --> A              
     e( 55 - 55) =     -4.94428  eV     1   --> A              
     e( 56 - 56) =     -4.93926  eV     1   --> A              
     e( 57 - 57) =     -4.93739  eV     1   --> A              
     e( 58 - 58) =     -4.92458  eV     1   --> A              
     e( 59 - 59) =     -4.92411  eV     1   --> A              
     e( 60 - 60) =     -4.90050  eV     1   --> A              
     e( 61 - 61) =     -4.89626  eV     1   --> A              
     e( 62 - 62) =     -4.68691  eV     1   --> A              
     e( 63 - 63) =     -4.42506  eV     1   --> A              
     e( 64 - 64) =     -4.40356  eV     1   --> A              
     e( 65 - 65) =     -4.19764  eV     1   --> A              
     e( 66 - 66) =     -4.08883  eV     1   --> A              
     e( 67 - 67) =     -4.07294  eV     1   --> A              
     e( 68 - 68) =     -3.96327  eV     1   --> A              
     e( 69 - 69) =     -3.96113  eV     1   --> A              
     e( 70 - 70) =     -3.87216  eV     1   --> A              
     e( 71 - 71) =     -3.87159  eV     1   --> A              
     e( 72 - 72) =     -3.85749  eV     1   --> A              
     e( 73 - 73) =     -3.85625  eV     1   --> A              
     e( 74 - 74) =     -3.85380  eV     1   --> A              
     e( 75 - 75) =     -3.66165  eV     1   --> A              
     e( 76 - 76) =     -3.66021  eV     1   --> A              
     e( 77 - 77) =     -3.37570  eV     1   --> A              
     e( 78 - 78) =     -3.31239  eV     1   --> A              
     e( 79 - 79) =     -3.30714  eV     1   --> A              
     e( 80 - 80) =     -3.29273  eV     1   --> A              
     e( 81 - 81) =     -3.25157  eV     1   --> A              
     e( 82 - 82) =     -3.00712  eV     1   --> A              
     e( 83 - 83) =     -2.97037  eV     1   --> A              
     e( 84 - 84) =     -2.96834  eV     1   --> A              
     e( 85 - 85) =     -2.86722  eV     1   --> A              
     e( 86 - 86) =     -2.85215  eV     1   --> A              
     e( 87 - 87) =     -2.72955  eV     1   --> A              
     e( 88 - 88) =     -2.71388  eV     1   --> A              
     e( 89 - 89) =     -2.65165  eV     1   --> A              
     e( 90 - 90) =     -2.43243  eV     1   --> A              
     e( 91 - 91) =     -2.41423  eV     1   --> A              
     e( 92 - 92) =     -2.01632  eV     1   --> A              
     e( 93 - 93) =     -2.01305  eV     1   --> A              
     e( 94 - 94) =     -2.00916  eV     1   --> A              
     e( 95 - 95) =     -2.00091  eV     1   --> A              
     e( 96 - 96) =     -1.96957  eV     1   --> A              
     e( 97 - 97) =     -1.91186  eV     1   --> A              
     e( 98 - 98) =     -1.85317  eV     1   --> A              
     e( 99 - 99) =     -1.82432  eV     1   --> A              
     e(100 -100) =     -1.78330  eV     1   --> A              
     e(101 -101) =     -0.27136  eV     1   --> A              
     e(102 -102) =     -0.18127  eV     1   --> A              
     e(103 -103) =     -0.14961  eV     1   --> A              
     e(104 -104) =      0.02031  eV     1   --> A              
     e(105 -105) =      0.06925  eV     1   --> A              
     e(106 -106) =      0.61812  eV     1   --> A              
     e(107 -107) =      0.77619  eV     1   --> A              
     e(108 -108) =      0.87707  eV     1   --> A              
     e(109 -109) =      0.88281  eV     1   --> A              
     e(110 -110) =      0.98883  eV     1   --> A              
     e(111 -111) =      1.02622  eV     1   --> A              
     e(112 -112) =      1.05866  eV     1   --> A              
     e(113 -113) =      1.19195  eV     1   --> A              
     e(114 -114) =      1.27654  eV     1   --> A              
     e(115 -115) =      1.28374  eV     1   --> A              
     e(116 -116) =      1.34040  eV     1   --> A              
     e(117 -117) =      1.48653  eV     1   --> A              
     e(118 -118) =      1.59267  eV     1   --> A              
     e(119 -119) =      1.96346  eV     1   --> A              
     e(120 -120) =      2.01676  eV     1   --> A              

 **************************************************************************

 **************************************************************************

                    xk=(   0.10000,   0.57735,   0.00000  )

     Band symmetry, C_1 (1)     point group:

     e(  1 -  1) =    -15.40199  eV     1   --> A              
     e(  2 -  2) =    -15.37988  eV     1   --> A              
     e(  3 -  3) =    -15.02893  eV     1   --> A              
     e(  4 -  4) =    -14.72571  eV     1   --> A              
     e(  5 -  5) =    -14.04655  eV     1   --> A              
     e(  6 -  6) =    -14.04519  eV     1   --> A              
     e(  7 -  7) =    -13.77264  eV     1   --> A              
     e(  8 -  8) =    -13.77124  eV     1   --> A              
     e(  9 -  9) =    -13.48493  eV     1   --> A              
     e( 10 - 10) =    -13.46896  eV     1   --> A              
     e( 11 - 11) =    -12.95610  eV     1   --> A              
     e( 12 - 12) =    -12.93449  eV     1   --> A              
     e( 13 - 13) =    -12.62359  eV     1   --> A              
     e( 14 - 14) =    -12.60222  eV     1   --> A              
     e( 15 - 15) =    -12.24941  eV     1   --> A              
     e( 16 - 16) =    -12.12091  eV     1   --> A              
     e( 17 - 17) =    -11.80439  eV     1   --> A              
     e( 18 - 18) =    -11.79895  eV     1   --> A              
     e( 19 - 19) =    -11.39881  eV     1   --> A              
     e( 20 - 20) =    -11.06329  eV     1   --> A              
     e( 21 - 21) =    -10.34087  eV     1   --> A              
     e( 22 - 22) =    -10.33814  eV     1   --> A              
     e( 23 - 23) =    -10.12873  eV     1   --> A              
     e( 24 - 24) =    -10.11771  eV     1   --> A              
     e( 25 - 25) =    -10.11623  eV     1   --> A              
     e( 26 - 26) =     -9.33162  eV     1   --> A              
     e( 27 - 27) =     -9.31937  eV     1   --> A              
     e( 28 - 28) =     -9.21334  eV     1   --> A              
     e( 29 - 29) =     -9.06486  eV     1   --> A              
     e( 30 - 30) =     -9.00573  eV     1   --> A              
     e( 31 - 31) =     -8.99375  eV     1   --> A              
     e( 32 - 32) =     -8.47211  eV     1   --> A              
     e( 33 - 33) =     -8.46142  eV     1   --> A              
     e( 34 - 34) =     -8.32127  eV     1   --> A              
     e( 35 - 35) =     -8.21164  eV     1   --> A              
     e( 36 - 36) =     -8.20906  eV     1   --> A              
     e( 37 - 37) =     -7.86437  eV     1   --> A              
     e( 38 - 38) =     -7.86104  eV     1   --> A              
     e( 39 - 39) =     -7.70865  eV     1   --> A              
     e( 40 - 40) =     -7.70764  eV     1   --> A              
     e( 41 - 41) =     -7.27091  eV     1   --> A              
     e( 42 - 42) =     -7.12064  eV     1   --> A              
     e( 43 - 43) =     -7.11982  eV     1   --> A              
     e( 44 - 44) =     -6.77383  eV     1   --> A              
     e( 45 - 45) =     -6.69002  eV     1   --> A              
     e( 46 - 46) =     -6.00880  eV     1   --> A              
     e( 47 - 47) =     -5.80436  eV     1   --> A              
     e( 48 - 48) =     -5.62886  eV     1   --> A              
     e( 49 - 49) =     -5.61758  eV     1   --> A              
     e( 50 - 50) =     -5.45483  eV     1   --> A              
     e( 51 - 51) =     -5.43751  eV     1   --> A              
     e( 52 - 52) =     -5.25042  eV     1   --> A              
     e( 53 - 53) =     -5.23969  eV     1   --> A              
     e( 54 - 54) =     -5.10652  eV     1   --> A              
     e( 55 - 55) =     -4.96532  eV     1   --> A              
     e( 56 - 56) =     -4.93586  eV     1   --> A              
     e( 57 - 57) =     -4.93526  eV     1   --> A              
     e( 58 - 58) =     -4.91939  eV     1   --> A              
     e( 59 - 59) =     -4.91903  eV     1   --> A              
     e( 60 - 60) =     -4.90494  eV     1   --> A              
     e( 61 - 61) =     -4.90077  eV     1   --> A              
     e( 62 - 62) =     -4.65852  eV     1   --> A              
     e( 63 - 63) =     -4.43713  eV     1   --> A              
     e( 64 - 64) =     -4.41564  eV     1   --> A              
     e( 65 - 65) =     -4.23310  eV     1   --> A              
     e( 66 - 66) =     -4.09514  eV     1   --> A              
     e( 67 - 67) =     -4.07924  eV     1   --> A              
     e( 68 - 68) =     -3.97587  eV     1   --> A              
     e( 69 - 69) =     -3.97400  eV     1   --> A              
     e( 70 - 70) =     -3.88346  eV     1   --> A              
     e( 71 - 71) =     -3.88301  eV     1   --> A              
     e( 72 - 72) =     -3.84278  eV     1   --> A              
     e( 73 - 73) =     -3.84038  eV     1   --> A              
     e( 74 - 74) =     -3.82782  eV     1   --> A              
     e( 75 - 75) =     -3.63663  eV     1   --> A              
     e( 76 - 76) =     -3.63517  eV     1   --> A              
     e( 77 - 77) =     -3.37366  eV     1   --> A              
     e( 78 - 78) =     -3.31727  eV     1   --> A              
     e( 79 - 79) =     -3.30549  eV     1   --> A              
     e( 80 - 80) =     -3.29786  eV     1   --> A              
     e( 81 - 81) =     -3.29051  eV     1   --> A              
     e( 82 - 82) =     -3.02970  eV     1   --> A              
     e( 83 - 83) =     -2.97088  eV     1   --> A              
     e( 84 - 84) =     -2.96883  eV     1   --> A              
     e( 85 - 85) =     -2.87690  eV     1   --> A              
     e( 86 - 86) =     -2.82577  eV     1   --> A              
     e( 87 - 87) =     -2.75812  eV     1   --> A              
     e( 88 - 88) =     -2.74464  eV     1   --> A              
     e( 89 - 89) =     -2.62752  eV     1   --> A              
     e( 90 - 90) =     -2.40728  eV     1   --> A              
     e( 91 - 91) =     -2.38903  eV     1   --> A              
     e( 92 - 92) =     -2.02677  eV     1   --> A              
     e( 93 - 93) =     -2.02187  eV     1   --> A              
     e( 94 - 94) =     -2.02050  eV     1   --> A              
     e( 95 - 95) =     -1.99937  eV     1   --> A              
     e( 96 - 96) =     -1.98569  eV     1   --> A              
     e( 97 - 97) =     -1.92505  eV     1   --> A              
     e( 98 - 98) =     -1.84014  eV     1   --> A              
     e( 99 - 99) =     -1.81304  eV     1   --> A              
     e(100 -100) =     -1.77243  eV     1   --> A              
     e(101 -101) =     -0.27273  eV     1   --> A              
     e(102 -102) =     -0.19886  eV     1   --> A              
     e(103 -103) =     -0.16856  eV     1   --> A              
     e(104 -104) =      0.04057  eV     1   --> A              
     e(105 -105) =      0.09179  eV     1   --> A              
     e(106 -106) =      0.64273  eV     1   --> A              
     e(107 -107) =      0.74781  eV     1   --> A              
     e(108 -108) =      0.89905  eV     1   --> A              
     e(109 -109) =      0.90476  eV     1   --> A              
     e(110 -110) =      0.98481  eV     1   --> A              
     e(111 -111) =      1.02770  eV     1   --> A              
     e(112 -112) =      1.08388  eV     1   --> A              
     e(113 -113) =      1.17147  eV     1   --> A              
     e(114 -114) =      1.27767  eV     1   --> A              
     e(115 -115) =      1.28488  eV     1   --> A              
     e(116 -116) =      1.31776  eV     1   --> A              
     e(117 -117) =      1.52243  eV     1   --> A              
     e(118 -118) =      1.61909  eV     1   --> A              
     e(119 -119) =      1.92583  eV     1   --> A              
     e(120 -120) =      1.97353  eV     1   --> A              

 **************************************************************************

 **************************************************************************

                    xk=(   0.11667,   0.57735,   0.00000  )

     Band symmetry, C_1 (1)     point group:

     e(  1 -  1) =    -15.39926  eV     1   --> A              
     e(  2 -  2) =    -15.37712  eV     1   --> A              
     e(  3 -  3) =    -15.05166  eV     1   --> A              
     e(  4 -  4) =    -14.69800  eV     1   --> A              
     e(  5 -  5) =    -14.06744  eV     1   --> A              
     e(  6 -  6) =    -14.06608  eV     1   --> A              
     e(  7 -  7) =    -13.74814  eV     1   --> A              
     e(  8 -  8) =    -13.74674  eV     1   --> A              
     e(  9 -  9) =    -13.48237  eV     1   --> A              
     e( 10 - 10) =    -13.46640  eV     1   --> A              
     e( 11 - 11) =    -12.98760  eV     1   --> A              
     e( 12 - 12) =    -12.96600  eV     1   --> A              
     e( 13 - 13) =    -12.60135  eV     1   --> A              
     e( 14 - 14) =    -12.57995  eV     1   --> A              
     e( 15 - 15) =    -12.26106  eV     1   --> A              
     e( 16 - 16) =    -12.11201  eV     1   --> A              
     e( 17 - 17) =    -11.80125  eV     1   --> A              
     e( 18 - 18) =    -11.79581  eV     1   --> A              
     e( 19 - 19) =    -11.42414  eV     1   --> A              
     e( 20 - 20) =    -11.03297  eV     1   --> A              
     e( 21 - 21) =    -10.36083  eV     1   --> A              
     e( 22 - 22) =    -10.35804  eV     1   --> A              
     e( 23 - 23) =    -10.12502  eV     1   --> A              
     e( 24 - 24) =    -10.10260  eV     1   --> A              
     e( 25 - 25) =    -10.10125  eV     1   --> A              
     e( 26 - 26) =     -9.34901  eV     1   --> A              
     e( 27 - 27) =     -9.33678  eV     1   --> A              
     e( 28 - 28) =     -9.22770  eV     1   --> A              
     e( 29 - 29) =     -9.05555  eV     1   --> A              
     e( 30 - 30) =     -8.97093  eV     1   --> A              
     e( 31 - 31) =     -8.95884  eV     1   --> A              
     e( 32 - 32) =     -8.47044  eV     1   --> A              
     e( 33 - 33) =     -8.45978  eV     1   --> A              
     e( 34 - 34) =     -8.32300  eV     1   --> A              
     e( 35 - 35) =     -8.23537  eV     1   --> A              
     e( 36 - 36) =     -8.23290  eV     1   --> A              
     e( 37 - 37) =     -7.83323  eV     1   --> A              
     e( 38 - 38) =     -7.82988  eV     1   --> A              
     e( 39 - 39) =     -7.75916  eV     1   --> A              
     e( 40 - 40) =     -7.75814  eV     1   --> A              
     e( 41 - 41) =     -7.30238  eV     1   --> A              
     e( 42 - 42) =     -7.07654  eV     1   --> A              
     e( 43 - 43) =     -7.07576  eV     1   --> A              
     e( 44 - 44) =     -6.74643  eV     1   --> A              
     e( 45 - 45) =     -6.72560  eV     1   --> A              
     e( 46 - 46) =     -5.95318  eV     1   --> A              
     e( 47 - 47) =     -5.86286  eV     1   --> A              
     e( 48 - 48) =     -5.65946  eV     1   --> A              
     e( 49 - 49) =     -5.64825  eV     1   --> A              
     e( 50 - 50) =     -5.45317  eV     1   --> A              
     e( 51 - 51) =     -5.43593  eV     1   --> A              
     e( 52 - 52) =     -5.21809  eV     1   --> A              
     e( 53 - 53) =     -5.20729  eV     1   --> A              
     e( 54 - 54) =     -5.05007  eV     1   --> A              
     e( 55 - 55) =     -4.98640  eV     1   --> A              
     e( 56 - 56) =     -4.93227  eV     1   --> A              
     e( 57 - 57) =     -4.93175  eV     1   --> A              
     e( 58 - 58) =     -4.91671  eV     1   --> A              
     e( 59 - 59) =     -4.91553  eV     1   --> A              
     e( 60 - 60) =     -4.90740  eV     1   --> A              
     e( 61 - 61) =     -4.90463  eV     1   --> A              
     e( 62 - 62) =     -4.62969  eV     1   --> A              
     e( 63 - 63) =     -4.45167  eV     1   --> A              
     e( 64 - 64) =     -4.43018  eV     1   --> A              
     e( 65 - 65) =     -4.26939  eV     1   --> A              
     e( 66 - 66) =     -4.10346  eV     1   --> A              
     e( 67 - 67) =     -4.08772  eV     1   --> A              
     e( 68 - 68) =     -3.99018  eV     1   --> A              
     e( 69 - 69) =     -3.98856  eV     1   --> A              
     e( 70 - 70) =     -3.89180  eV     1   --> A              
     e( 71 - 71) =     -3.89111  eV     1   --> A              
     e( 72 - 72) =     -3.82859  eV     1   --> A              
     e( 73 - 73) =     -3.82622  eV     1   --> A              
     e( 74 - 74) =     -3.79823  eV     1   --> A              
     e( 75 - 75) =     -3.61135  eV     1   --> A              
     e( 76 - 76) =     -3.60988  eV     1   --> A              
     e( 77 - 77) =     -3.37102  eV     1   --> A              
     e( 78 - 78) =     -3.32936  eV     1   --> A              
     e( 79 - 79) =     -3.32357  eV     1   --> A              
     e( 80 - 80) =     -3.30447  eV     1   --> A              
     e( 81 - 81) =     -3.30337  eV     1   --> A              
     e( 82 - 82) =     -3.05525  eV     1   --> A              
     e( 83 - 83) =     -2.97150  eV     1   --> A              
     e( 84 - 84) =     -2.96941  eV     1   --> A              
     e( 85 - 85) =     -2.89223  eV     1   --> A              
     e( 86 - 86) =     -2.81655  eV     1   --> A              
     e( 87 - 87) =     -2.78466  eV     1   --> A              
     e( 88 - 88) =     -2.75560  eV     1   --> A              
     e( 89 - 89) =     -2.60289  eV     1   --> A              
     e( 90 - 90) =     -2.38303  eV     1   --> A              
     e( 91 - 91) =     -2.36473  eV     1   --> A              
     e( 92 - 92) =     -2.04078  eV     1   --> A              
     e( 93 - 93) =     -2.03655  eV     1   --> A              
     e( 94 - 94) =     -2.03448  eV     1   --> A              
     e( 95 - 95) =     -2.00204  eV     1   --> A              
     e( 96 - 96) =     -1.98841  eV     1   --> A              
     e( 97 - 97) =     -1.93914  eV     1   --> A              
     e( 98 - 98) =     -1.82842  eV     1   --> A              
     e( 99 - 99) =     -1.80267  eV     1   --> A              
     e(100 -100) =     -1.76306  eV     1   --> A              
     e(101 -101) =     -0.27446  eV     1   --> A              
     e(102 -102) =     -0.21547  eV     1   --> A              
     e(103 -103) =     -0.18664  eV     1   --> A              
     e(104 -104) =      0.06052  eV     1   --> A              
     e(105 -105) =      0.11413  eV     1   --> A              
     e(106 -106) =      0.67149  eV     1   --> A              
     e(107 -107) =      0.71960  eV     1   --> A              
     e(108 -108) =      0.92433  eV     1   --> A              
     e(109 -109) =      0.93001  eV     1   --> A              
     e(110 -110) =      0.98061  eV     1   --> A              
     e(111 -111) =      1.02831  eV     1   --> A              
     e(112 -112) =      1.10794  eV     1   --> A              
     e(113 -113) =      1.15341  eV     1   --> A              
     e(114 -114) =      1.27888  eV     1   --> A              
     e(115 -115) =      1.28608  eV     1   --> A              
     e(116 -116) =      1.29606  eV     1   --> A              
     e(117 -117) =      1.55869  eV     1   --> A              
     e(118 -118) =      1.64509  eV     1   --> A              
     e(119 -119) =      1.88808  eV     1   --> A              
     e(120 -120) =      1.92993  eV     1   --> A              

 **************************************************************************

 **************************************************************************

                    xk=(   0.13333,   0.57735,   0.00000  )

     Band symmetry, C_1 (1)     point group:

     e(  1 -  1) =    -15.39608  eV     1   --> A              
     e(  2 -  2) =    -15.37390  eV     1   --> A              
     e(  3 -  3) =    -15.07405  eV     1   --> A              
     e(  4 -  4) =    -14.66987  eV     1   --> A              
     e(  5 -  5) =    -14.08797  eV     1   --> A              
     e(  6 -  6) =    -14.08661  eV     1   --> A              
     e(  7 -  7) =    -13.72337  eV     1   --> A              
     e(  8 -  8) =    -13.72197  eV     1   --> A              
     e(  9 -  9) =    -13.47952  eV     1   --> A              
     e( 10 - 10) =    -13.46355  eV     1   --> A              
     e( 11 - 11) =    -13.01949  eV     1   --> A              
     e( 12 - 12) =    -12.99790  eV     1   --> A              
     e( 13 - 13) =    -12.58016  eV     1   --> A              
     e( 14 - 14) =    -12.55876  eV     1   --> A              
     e( 15 - 15) =    -12.27269  eV     1   --> A              
     e( 16 - 16) =    -12.10339  eV     1   --> A              
     e( 17 - 17) =    -11.79760  eV     1   --> A              
     e( 18 - 18) =    -11.79217  eV     1   --> A              
     e( 19 - 19) =    -11.44905  eV     1   --> A              
     e( 20 - 20) =    -11.00211  eV     1   --> A              
     e( 21 - 21) =    -10.38069  eV     1   --> A              
     e( 22 - 22) =    -10.37785  eV     1   --> A              
     e( 23 - 23) =    -10.12086  eV     1   --> A              
     e( 24 - 24) =    -10.08844  eV     1   --> A              
     e( 25 - 25) =    -10.08724  eV     1   --> A              
     e( 26 - 26) =     -9.36542  eV     1   --> A              
     e( 27 - 27) =     -9.35321  eV     1   --> A              
     e( 28 - 28) =     -9.24203  eV     1   --> A              
     e( 29 - 29) =     -9.04629  eV     1   --> A              
     e( 30 - 30) =     -8.93477  eV     1   --> A              
     e( 31 - 31) =     -8.92261  eV     1   --> A              
     e( 32 - 32) =     -8.46877  eV     1   --> A              
     e( 33 - 33) =     -8.45815  eV     1   --> A              
     e( 34 - 34) =     -8.32513  eV     1   --> A              
     e( 35 - 35) =     -8.25785  eV     1   --> A              
     e( 36 - 36) =     -8.25551  eV     1   --> A              
     e( 37 - 37) =     -7.81093  eV     1   --> A              
     e( 38 - 38) =     -7.80990  eV     1   --> A              
     e( 39 - 39) =     -7.80201  eV     1   --> A              
     e( 40 - 40) =     -7.79866  eV     1   --> A              
     e( 41 - 41) =     -7.33043  eV     1   --> A              
     e( 42 - 42) =     -7.03269  eV     1   --> A              
     e( 43 - 43) =     -7.03195  eV     1   --> A              
     e( 44 - 44) =     -6.80247  eV     1   --> A              
     e( 45 - 45) =     -6.67578  eV     1   --> A              
     e( 46 - 46) =     -5.92051  eV     1   --> A              
     e( 47 - 47) =     -5.89815  eV     1   --> A              
     e( 48 - 48) =     -5.69012  eV     1   --> A              
     e( 49 - 49) =     -5.67896  eV     1   --> A              
     e( 50 - 50) =     -5.45129  eV     1   --> A              
     e( 51 - 51) =     -5.43415  eV     1   --> A              
     e( 52 - 52) =     -5.18632  eV     1   --> A              
     e( 53 - 53) =     -5.17546  eV     1   --> A              
     e( 54 - 54) =     -5.00994  eV     1   --> A              
     e( 55 - 55) =     -4.99025  eV     1   --> A              
     e( 56 - 57) =     -4.92781  eV     2   -->   2 A              
     e( 58 - 58) =     -4.91895  eV     1   --> A              
     e( 59 - 59) =     -4.91661  eV     1   --> A              
     e( 60 - 60) =     -4.90424  eV     1   --> A              
     e( 61 - 61) =     -4.90370  eV     1   --> A              
     e( 62 - 62) =     -4.60042  eV     1   --> A              
     e( 63 - 63) =     -4.46779  eV     1   --> A              
     e( 64 - 64) =     -4.44631  eV     1   --> A              
     e( 65 - 65) =     -4.30583  eV     1   --> A              
     e( 66 - 66) =     -4.11198  eV     1   --> A              
     e( 67 - 67) =     -4.09648  eV     1   --> A              
     e( 68 - 68) =     -4.00585  eV     1   --> A              
     e( 69 - 69) =     -4.00446  eV     1   --> A              
     e( 70 - 70) =     -3.89709  eV     1   --> A              
     e( 71 - 71) =     -3.89608  eV     1   --> A              
     e( 72 - 72) =     -3.81366  eV     1   --> A              
     e( 73 - 73) =     -3.81133  eV     1   --> A              
     e( 74 - 74) =     -3.76855  eV     1   --> A              
     e( 75 - 75) =     -3.58519  eV     1   --> A              
     e( 76 - 76) =     -3.58370  eV     1   --> A              
     e( 77 - 77) =     -3.36836  eV     1   --> A              
     e( 78 - 78) =     -3.36790  eV     1   --> A              
     e( 79 - 79) =     -3.33189  eV     1   --> A              
     e( 80 - 80) =     -3.31311  eV     1   --> A              
     e( 81 - 81) =     -3.30145  eV     1   --> A              
     e( 82 - 82) =     -3.08331  eV     1   --> A              
     e( 83 - 83) =     -2.97221  eV     1   --> A              
     e( 84 - 84) =     -2.97009  eV     1   --> A              
     e( 85 - 85) =     -2.90708  eV     1   --> A              
     e( 86 - 86) =     -2.84084  eV     1   --> A              
     e( 87 - 87) =     -2.81745  eV     1   --> A              
     e( 88 - 88) =     -2.72798  eV     1   --> A              
     e( 89 - 89) =     -2.57779  eV     1   --> A              
     e( 90 - 90) =     -2.36030  eV     1   --> A              
     e( 91 - 91) =     -2.34194  eV     1   --> A              
     e( 92 - 92) =     -2.05611  eV     1   --> A              
     e( 93 - 93) =     -2.05212  eV     1   --> A              
     e( 94 - 94) =     -2.04978  eV     1   --> A              
     e( 95 - 95) =     -2.01816  eV     1   --> A              
     e( 96 - 96) =     -1.97662  eV     1   --> A              
     e( 97 - 97) =     -1.95238  eV     1   --> A              
     e( 98 - 98) =     -1.81687  eV     1   --> A              
     e( 99 - 99) =     -1.79330  eV     1   --> A              
     e(100 -100) =     -1.75331  eV     1   --> A              
     e(101 -101) =     -0.27670  eV     1   --> A              
     e(102 -102) =     -0.23088  eV     1   --> A              
     e(103 -103) =     -0.20366  eV     1   --> A              
     e(104 -104) =      0.08010  eV     1   --> A              
     e(105 -105) =      0.13620  eV     1   --> A              
     e(106 -106) =      0.69148  eV     1   --> A              
     e(107 -107) =      0.70433  eV     1   --> A              
     e(108 -108) =      0.95262  eV     1   --> A              
     e(109 -109) =      0.95826  eV     1   --> A              
     e(110 -110) =      0.97646  eV     1   --> A              
     e(111 -111) =      1.02799  eV     1   --> A              
     e(112 -112) =      1.12830  eV     1   --> A              
     e(113 -113) =      1.14022  eV     1   --> A              
     e(114 -114) =      1.27382  eV     1   --> A              
     e(115 -115) =      1.28118  eV     1   --> A              
     e(116 -116) =      1.28798  eV     1   --> A              
     e(117 -117) =      1.59486  eV     1   --> A              
     e(118 -118) =      1.67007  eV     1   --> A              
     e(119 -119) =      1.85033  eV     1   --> A              
     e(120 -120) =      1.88833  eV     1   --> A              

 **************************************************************************

 **************************************************************************

                    xk=(   0.15000,   0.57735,   0.00000  )

     Band symmetry, C_1 (1)     point group:

     e(  1 -  1) =    -15.39249  eV     1   --> A              
     e(  2 -  2) =    -15.37025  eV     1   --> A              
     e(  3 -  3) =    -15.09603  eV     1   --> A              
     e(  4 -  4) =    -14.64160  eV     1   --> A              
     e(  5 -  5) =    -14.10811  eV     1   --> A              
     e(  6 -  6) =    -14.10675  eV     1   --> A              
     e(  7 -  7) =    -13.69849  eV     1   --> A              
     e(  8 -  8) =    -13.69708  eV     1   --> A              
     e(  9 -  9) =    -13.47629  eV     1   --> A              
     e( 10 - 10) =    -13.46032  eV     1   --> A              
     e( 11 - 11) =    -13.05176  eV     1   --> A              
     e( 12 - 12) =    -13.03018  eV     1   --> A              
     e( 13 - 13) =    -12.56013  eV     1   --> A              
     e( 14 - 14) =    -12.53870  eV     1   --> A              
     e( 15 - 15) =    -12.28433  eV     1   --> A              
     e( 16 - 16) =    -12.09527  eV     1   --> A              
     e( 17 - 17) =    -11.79347  eV     1   --> A              
     e( 18 - 18) =    -11.78803  eV     1   --> A              
     e( 19 - 19) =    -11.47350  eV     1   --> A              
     e( 20 - 20) =    -10.97094  eV     1   --> A              
     e( 21 - 21) =    -10.40058  eV     1   --> A              
     e( 22 - 22) =    -10.39769  eV     1   --> A              
     e( 23 - 23) =    -10.11616  eV     1   --> A              
     e( 24 - 24) =    -10.07539  eV     1   --> A              
     e( 25 - 25) =    -10.07435  eV     1   --> A              
     e( 26 - 26) =     -9.37971  eV     1   --> A              
     e( 27 - 27) =     -9.36752  eV     1   --> A              
     e( 28 - 28) =     -9.25639  eV     1   --> A              
     e( 29 - 29) =     -9.03814  eV     1   --> A              
     e( 30 - 30) =     -8.89754  eV     1   --> A              
     e( 31 - 31) =     -8.88534  eV     1   --> A              
     e( 32 - 32) =     -8.46689  eV     1   --> A              
     e( 33 - 33) =     -8.45631  eV     1   --> A              
     e( 34 - 34) =     -8.32747  eV     1   --> A              
     e( 35 - 35) =     -8.27889  eV     1   --> A              
     e( 36 - 36) =     -8.27669  eV     1   --> A              
     e( 37 - 37) =     -7.86324  eV     1   --> A              
     e( 38 - 38) =     -7.86224  eV     1   --> A              
     e( 39 - 39) =     -7.77101  eV     1   --> A              
     e( 40 - 40) =     -7.76765  eV     1   --> A              
     e( 41 - 41) =     -7.35737  eV     1   --> A              
     e( 42 - 42) =     -6.98971  eV     1   --> A              
     e( 43 - 43) =     -6.98900  eV     1   --> A              
     e( 44 - 44) =     -6.85835  eV     1   --> A              
     e( 45 - 45) =     -6.62521  eV     1   --> A              
     e( 46 - 46) =     -5.97919  eV     1   --> A              
     e( 47 - 47) =     -5.84383  eV     1   --> A              
     e( 48 - 48) =     -5.72139  eV     1   --> A              
     e( 49 - 49) =     -5.71028  eV     1   --> A              
     e( 50 - 50) =     -5.44925  eV     1   --> A              
     e( 51 - 51) =     -5.43223  eV     1   --> A              
     e( 52 - 52) =     -5.15490  eV     1   --> A              
     e( 53 - 53) =     -5.14400  eV     1   --> A              
     e( 54 - 54) =     -5.02767  eV     1   --> A              
     e( 55 - 55) =     -4.94034  eV     1   --> A              
     e( 56 - 56) =     -4.92914  eV     1   --> A              
     e( 57 - 57) =     -4.92760  eV     1   --> A              
     e( 58 - 58) =     -4.91706  eV     1   --> A              
     e( 59 - 59) =     -4.91351  eV     1   --> A              
     e( 60 - 60) =     -4.89890  eV     1   --> A              
     e( 61 - 61) =     -4.89870  eV     1   --> A              
     e( 62 - 62) =     -4.57084  eV     1   --> A              
     e( 63 - 63) =     -4.48605  eV     1   --> A              
     e( 64 - 64) =     -4.46459  eV     1   --> A              
     e( 65 - 65) =     -4.34282  eV     1   --> A              
     e( 66 - 66) =     -4.12182  eV     1   --> A              
     e( 67 - 67) =     -4.10666  eV     1   --> A              
     e( 68 - 68) =     -4.02265  eV     1   --> A              
     e( 69 - 69) =     -4.02139  eV     1   --> A              
     e( 70 - 70) =     -3.89969  eV     1   --> A              
     e( 71 - 71) =     -3.89837  eV     1   --> A              
     e( 72 - 72) =     -3.79808  eV     1   --> A              
     e( 73 - 73) =     -3.79578  eV     1   --> A              
     e( 74 - 74) =     -3.73937  eV     1   --> A              
     e( 75 - 75) =     -3.55962  eV     1   --> A              
     e( 76 - 76) =     -3.55809  eV     1   --> A              
     e( 77 - 77) =     -3.40624  eV     1   --> A              
     e( 78 - 78) =     -3.36548  eV     1   --> A              
     e( 79 - 79) =     -3.34081  eV     1   --> A              
     e( 80 - 80) =     -3.32243  eV     1   --> A              
     e( 81 - 81) =     -3.29964  eV     1   --> A              
     e( 82 - 82) =     -3.11323  eV     1   --> A              
     e( 83 - 83) =     -2.97302  eV     1   --> A              
     e( 84 - 84) =     -2.97086  eV     1   --> A              
     e( 85 - 85) =     -2.92131  eV     1   --> A              
     e( 86 - 86) =     -2.87225  eV     1   --> A              
     e( 87 - 87) =     -2.85137  eV     1   --> A              
     e( 88 - 88) =     -2.69173  eV     1   --> A              
     e( 89 - 89) =     -2.55228  eV     1   --> A              
     e( 90 - 90) =     -2.33913  eV     1   --> A              
     e( 91 - 91) =     -2.32071  eV     1   --> A              
     e( 92 - 92) =     -2.07236  eV     1   --> A              
     e( 93 - 93) =     -2.06820  eV     1   --> A              
[...]
     e( 63 - 63) =     -4.42247  eV     1   --> A''            
     e( 64 - 64) =     -4.34684  eV     1   --> A''            
     e( 65 - 65) =     -4.26153  eV     1   --> A'             
     e( 66 - 66) =     -4.02748  eV     1   --> A'             
     e( 67 - 67) =     -4.02648  eV     1   --> A''            
     e( 68 - 68) =     -4.01560  eV     1   --> A''            
     e( 69 - 69) =     -4.01530  eV     1   --> A'             
     e( 70 - 71) =     -3.90881  eV     2   --> A'             
     e( 70 - 71) =     -3.90881  eV     2   --> A''            
     e( 72 - 72) =     -3.88470  eV     1   --> A'             
     e( 73 - 73) =     -3.74436  eV     1   --> A'             
     e( 74 - 74) =     -3.74311  eV     1   --> A''            
     e( 75 - 75) =     -3.69046  eV     1   --> A''            
     e( 76 - 76) =     -3.69029  eV     1   --> A'             
     e( 77 - 77) =     -3.48137  eV     1   --> A'             
     e( 78 - 78) =     -3.34630  eV     1   --> A''            
     e( 79 - 79) =     -3.23719  eV     1   --> A''            
     e( 80 - 80) =     -3.21249  eV     1   --> A'             
     e( 81 - 81) =     -3.05021  eV     1   --> A'             
     e( 82 - 82) =     -3.04675  eV     1   --> A''            
     e( 83 - 83) =     -3.00829  eV     1   --> A'             
     e( 84 - 84) =     -2.94941  eV     1   --> A''            
     e( 85 - 85) =     -2.89928  eV     1   --> A'             
     e( 86 - 86) =     -2.76214  eV     1   --> A'             
     e( 87 - 87) =     -2.75836  eV     1   --> A''            
     e( 88 - 88) =     -2.58994  eV     1   --> A'             
     e( 89 - 89) =     -2.58038  eV     1   --> A''            
     e( 90 - 90) =     -2.54718  eV     1   --> A''            
     e( 91 - 91) =     -2.54028  eV     1   --> A'             
     e( 92 - 92) =     -2.06065  eV     1   --> A''            
     e( 93 - 93) =     -2.04850  eV     1   --> A'             
     e( 94 - 94) =     -1.98803  eV     1   --> A'             
     e( 95 - 95) =     -1.98426  eV     1   --> A''            
     e( 96 - 96) =     -1.90563  eV     1   --> A''            
     e( 97 - 97) =     -1.89333  eV     1   --> A''            
     e( 98 - 98) =     -1.89293  eV     1   --> A'             
     e( 99 - 99) =     -1.79103  eV     1   --> A'             
     e(100 -100) =     -1.78691  eV     1   --> A''            
     e(101 -101) =     -0.25975  eV     1   --> A'             
     e(102 -102) =     -0.13972  eV     1   --> A'             
     e(103 -103) =     -0.13813  eV     1   --> A''            
     e(104 -104) =      0.00625  eV     1   --> A'             
     e(105 -105) =      0.00889  eV     1   --> A''            
     e(106 -106) =      0.56651  eV     1   --> A'             
     e(107 -107) =      0.77676  eV     1   --> A'             
     e(108 -108) =      0.84173  eV     1   --> A'             
     e(109 -109) =      0.90744  eV     1   --> A'             
     e(110 -110) =      0.91022  eV     1   --> A''            
     e(111 -111) =      1.01654  eV     1   --> A''            
     e(112 -112) =      1.02705  eV     1   --> A'             
     e(113 -113) =      1.25637  eV     1   --> A'             
     e(114 -114) =      1.29209  eV     1   --> A'             
     e(115 -115) =      1.31056  eV     1   --> A''            
     e(116 -116) =      1.31283  eV     1   --> A'             
     e(117 -117) =      1.47552  eV     1   --> A'             
     e(118 -118) =      1.47728  eV     1   --> A''            
     e(119 -119) =      1.93688  eV     1   --> A'             
     e(120 -120) =      1.99907  eV     1   -->   ?

 **************************************************************************

 **************************************************************************

                    xk=(   0.00000,   0.54848,   0.00000  )

     Band symmetry, C_s (m)     point group:

     e(  1 -  1) =    -15.42658  eV     1   --> A'             
     e(  2 -  2) =    -15.36988  eV     1   --> A'             
     e(  3 -  3) =    -14.88432  eV     1   --> A''            
     e(  4 -  4) =    -14.88263  eV     1   --> A'             
     e(  5 -  5) =    -13.96013  eV     1   --> A''            
     e(  6 -  6) =    -13.95960  eV     1   --> A'             
     e(  7 -  7) =    -13.86755  eV     1   --> A''            
     e(  8 -  8) =    -13.86700  eV     1   --> A'             
     e(  9 -  9) =    -13.54580  eV     1   --> A'             
     e( 10 - 10) =    -13.42197  eV     1   --> A'             
     e( 11 - 11) =    -12.78905  eV     1   --> A'             
     e( 12 - 12) =    -12.77471  eV     1   --> A''            
     e( 13 - 13) =    -12.75653  eV     1   --> A''            
     e( 14 - 14) =    -12.74535  eV     1   --> A'             
     e( 15 - 15) =    -12.18461  eV     1   --> A''            
     e( 16 - 16) =    -12.18339  eV     1   --> A'             
     e( 17 - 17) =    -11.83914  eV     1   --> A'             
     e( 18 - 18) =    -11.78048  eV     1   --> A'             
     e( 19 - 19) =    -11.24083  eV     1   --> A'             
     e( 20 - 20) =    -11.23446  eV     1   --> A''            
     e( 21 - 21) =    -10.27210  eV     1   --> A'             
     e( 22 - 22) =    -10.26584  eV     1   --> A''            
     e( 23 - 23) =    -10.17708  eV     1   --> A'             
     e( 24 - 24) =    -10.17083  eV     1   --> A''            
     e( 25 - 25) =    -10.14232  eV     1   --> A'             
     e( 26 - 26) =     -9.23434  eV     1   --> A''            
     e( 27 - 27) =     -9.23170  eV     1   --> A'             
     e( 28 - 28) =     -9.14319  eV     1   --> A'             
     e( 29 - 29) =     -9.14251  eV     1   --> A''            
     e( 30 - 30) =     -9.12718  eV     1   --> A'             
     e( 31 - 31) =     -9.12675  eV     1   --> A''            
     e( 32 - 32) =     -8.56942  eV     1   --> A'             
     e( 33 - 33) =     -8.37222  eV     1   --> A'             
     e( 34 - 34) =     -8.31014  eV     1   --> A'             
     e( 35 - 35) =     -8.10247  eV     1   --> A'             
     e( 36 - 36) =     -8.09870  eV     1   --> A''            
     e( 37 - 37) =     -7.99388  eV     1   --> A'             
     e( 38 - 38) =     -7.99027  eV     1   --> A''            
     e( 39 - 40) =     -7.45892  eV     2   --> A'             
     e( 39 - 40) =     -7.45892  eV     2   --> A''            
     e( 41 - 42) =     -7.35000  eV     2   --> A'             
     e( 41 - 42) =     -7.35000  eV     2   --> A''            
     e( 43 - 43) =     -7.04694  eV     1   --> A'             
     e( 44 - 44) =     -7.04652  eV     1   --> A''            
     e( 45 - 45) =     -6.35217  eV     1   --> A'             
     e( 46 - 46) =     -6.35056  eV     1   --> A''            
     e( 47 - 47) =     -5.50792  eV     1   --> A'             
     e( 48 - 48) =     -5.50624  eV     1   --> A''            
     e( 49 - 49) =     -5.47278  eV     1   --> A'             
     e( 50 - 50) =     -5.45813  eV     1   --> A''            
     e( 51 - 51) =     -5.45769  eV     1   --> A'             
     e( 52 - 52) =     -5.43506  eV     1   --> A'             
     e( 53 - 53) =     -5.36542  eV     1   --> A''            
     e( 54 - 54) =     -5.36475  eV     1   --> A'             
     e( 55 - 55) =     -5.01742  eV     1   --> A'             
     e( 56 - 56) =     -5.01687  eV     1   --> A''            
     e( 57 - 57) =     -4.95376  eV     1   --> A'             
     e( 58 - 58) =     -4.86230  eV     1   --> A'             
     e( 59 - 59) =     -4.86121  eV     1   --> A''            
     e( 60 - 60) =     -4.82495  eV     1   --> A'             
     e( 61 - 61) =     -4.82021  eV     1   --> A''            
     e( 62 - 62) =     -4.81611  eV     1   --> A'             
     e( 63 - 63) =     -4.40717  eV     1   --> A''            
     e( 64 - 64) =     -4.36509  eV     1   --> A''            
     e( 65 - 65) =     -4.16360  eV     1   --> A'             
     e( 66 - 66) =     -4.02054  eV     1   --> A'             
     e( 67 - 67) =     -4.01913  eV     1   --> A''            
     e( 68 - 68) =     -3.97196  eV     1   --> A'             
     e( 69 - 69) =     -3.96815  eV     1   --> A'             
     e( 70 - 70) =     -3.96710  eV     1   --> A''            
     e( 71 - 71) =     -3.88391  eV     1   --> A'             
     e( 72 - 72) =     -3.88349  eV     1   --> A''            
     e( 73 - 73) =     -3.78941  eV     1   --> A'             
     e( 74 - 74) =     -3.78868  eV     1   --> A''            
     e( 75 - 75) =     -3.73798  eV     1   --> A''            
     e( 76 - 76) =     -3.73784  eV     1   --> A'             
     e( 77 - 77) =     -3.42110  eV     1   --> A'             
     e( 78 - 78) =     -3.31991  eV     1   --> A''            
     e( 79 - 79) =     -3.27383  eV     1   --> A'             
     e( 80 - 80) =     -3.26500  eV     1   --> A''            
     e( 81 - 81) =     -3.05508  eV     1   --> A'             
     e( 82 - 82) =     -3.05166  eV     1   --> A''            
     e( 83 - 83) =     -2.99169  eV     1   --> A'             
     e( 84 - 84) =     -2.95150  eV     1   --> A''            
     e( 85 - 85) =     -2.93755  eV     1   --> A'             
     e( 86 - 86) =     -2.76473  eV     1   --> A'             
     e( 87 - 87) =     -2.76093  eV     1   --> A''            
     e( 88 - 88) =     -2.58501  eV     1   --> A'             
     e( 89 - 89) =     -2.57168  eV     1   --> A''            
     e( 90 - 90) =     -2.55517  eV     1   --> A''            
     e( 91 - 91) =     -2.54451  eV     1   --> A'             
     e( 92 - 92) =     -2.04151  eV     1   --> A'             
     e( 93 - 93) =     -2.02171  eV     1   --> A''            
     e( 94 - 94) =     -1.94946  eV     1   --> A'             
     e( 95 - 95) =     -1.94869  eV     1   --> A''            
     e( 96 - 96) =     -1.94144  eV     1   --> A''            
     e( 97 - 97) =     -1.88923  eV     1   --> A'             
     e( 98 - 98) =     -1.88787  eV     1   --> A''            
     e( 99 - 99) =     -1.82810  eV     1   --> A'             
     e(100 -100) =     -1.82508  eV     1   --> A''            
     e(101 -101) =     -0.26635  eV     1   --> A'             
     e(102 -102) =     -0.10568  eV     1   --> A'             
     e(103 -103) =     -0.10428  eV     1   --> A''            
     e(104 -104) =     -0.02491  eV     1   --> A'             
     e(105 -105) =     -0.02178  eV     1   --> A''            
     e(106 -106) =      0.56254  eV     1   --> A'             
     e(107 -107) =      0.80727  eV     1   --> A'             
     e(108 -108) =      0.83943  eV     1   --> A'             
     e(109 -109) =      0.91536  eV     1   --> A'             
     e(110 -110) =      0.91791  eV     1   --> A''            
     e(111 -111) =      1.00892  eV     1   --> A''            
     e(112 -112) =      1.01919  eV     1   --> A'             
     e(113 -113) =      1.26691  eV     1   --> A'             
     e(114 -114) =      1.28627  eV     1   --> A'             
     e(115 -115) =      1.31795  eV     1   --> A''            
     e(116 -116) =      1.32013  eV     1   --> A'             
     e(117 -117) =      1.46586  eV     1   --> A'             
     e(118 -118) =      1.46746  eV     1   --> A''            
     e(119 -119) =      2.01958  eV     1   --> A'             
     e(120 -120) =      2.11563  eV     1   -->   ?

 **************************************************************************

 **************************************************************************

                    xk=(   0.00000,   0.57735,   0.00000  )

     Band symmetry, C_s (m)     point group:

     e(  1 -  1) =    -15.40990  eV     1   --> A'             
     e(  2 -  2) =    -15.38788  eV     1   --> A'             
     e(  3 -  3) =    -14.88513  eV     1   --> A''            
     e(  4 -  4) =    -14.88343  eV     1   --> A'             
     e(  5 -  5) =    -13.91519  eV     1   --> A''            
     e(  6 -  6) =    -13.91430  eV     1   --> A'             
     e(  7 -  7) =    -13.91347  eV     1   --> A''            
     e(  8 -  8) =    -13.91327  eV     1   --> A'             
     e(  9 -  9) =    -13.49187  eV     1   --> A'             
     e( 10 - 10) =    -13.47592  eV     1   --> A'             
     e( 11 - 11) =    -12.78732  eV     1   --> A'             
     e( 12 - 12) =    -12.76775  eV     1   --> A''            
     e( 13 - 13) =    -12.76380  eV     1   --> A''            
     e( 14 - 14) =    -12.74739  eV     1   --> A'             
     e( 15 - 15) =    -12.18243  eV     1   --> A''            
     e( 16 - 16) =    -12.18121  eV     1   --> A'             
     e( 17 - 17) =    -11.81330  eV     1   --> A'             
     e( 18 - 18) =    -11.80786  eV     1   --> A'             
     e( 19 - 19) =    -11.24169  eV     1   --> A'             
     e( 20 - 20) =    -11.23532  eV     1   --> A''            
     e( 21 - 21) =    -10.22651  eV     1   --> A'             
     e( 22 - 22) =    -10.22361  eV     1   --> A'             
     e( 23 - 23) =    -10.22002  eV     1   --> A''            
     e( 24 - 24) =    -10.21761  eV     1   --> A''            
     e( 25 - 25) =    -10.13862  eV     1   --> A'             
     e( 26 - 26) =     -9.20256  eV     1   --> A''            
     e( 27 - 27) =     -9.19259  eV     1   --> A'             
     e( 28 - 28) =     -9.18283  eV     1   --> A'             
     e( 29 - 29) =     -9.17446  eV     1   --> A''            
     e( 30 - 31) =     -9.13229  eV     2   --> A'             
     e( 30 - 31) =     -9.13229  eV     2   --> A''            
     e( 32 - 32) =     -8.47674  eV     1   --> A'             
     e( 33 - 33) =     -8.46597  eV     1   --> A'             
     e( 34 - 34) =     -8.31639  eV     1   --> A'             
     e( 35 - 35) =     -8.04963  eV     1   --> A'             
     e( 36 - 36) =     -8.04673  eV     1   --> A'             
     e( 37 - 37) =     -8.04631  eV     1   --> A''            
     e( 38 - 38) =     -8.04266  eV     1   --> A''            
     e( 39 - 39) =     -7.40557  eV     1   --> A'             
     e( 40 - 40) =     -7.40498  eV     1   --> A''            
     e( 41 - 41) =     -7.40459  eV     1   --> A''            
     e( 42 - 42) =     -7.40402  eV     1   --> A'             
     e( 43 - 43) =     -7.04942  eV     1   --> A'             
     e( 44 - 44) =     -7.04900  eV     1   --> A''            
     e( 45 - 45) =     -6.35026  eV     1   --> A'             
     e( 46 - 46) =     -6.34865  eV     1   --> A''            
     e( 47 - 47) =     -5.46502  eV     1   --> A'             
     e( 48 - 48) =     -5.45910  eV     1   --> A''            
     e( 49 - 49) =     -5.45419  eV     1   --> A'             
     e( 50 - 50) =     -5.45041  eV     1   --> A'             
     e( 51 - 51) =     -5.44281  eV     1   --> A'             
     e( 52 - 52) =     -5.43833  eV     1   --> A''            
     e( 53 - 53) =     -5.43096  eV     1   --> A''            
     e( 54 - 54) =     -5.42127  eV     1   --> A'             
     e( 55 - 55) =     -4.94042  eV     1   --> A'             
     e( 56 - 56) =     -4.93984  eV     1   --> A''            
     e( 57 - 57) =     -4.93900  eV     1   --> A'             
     e( 58 - 58) =     -4.93805  eV     1   --> A''            
     e( 59 - 59) =     -4.89039  eV     1   --> A'             
     e( 60 - 60) =     -4.88539  eV     1   --> A'             
     e( 61 - 61) =     -4.82129  eV     1   --> A''            
     e( 62 - 62) =     -4.81968  eV     1   --> A'             
     e( 63 - 63) =     -4.39765  eV     1   --> A''            
     e( 64 - 64) =     -4.37613  eV     1   --> A''            
     e( 65 - 65) =     -4.08292  eV     1   --> A'             
     e( 66 - 66) =     -4.05958  eV     1   --> A'             
     e( 67 - 67) =     -4.02320  eV     1   --> A''            
     e( 68 - 68) =     -4.01633  eV     1   --> A'             
     e( 69 - 69) =     -3.91363  eV     1   --> A'             
     e( 70 - 70) =     -3.91271  eV     1   --> A''            
     e( 71 - 71) =     -3.91111  eV     1   --> A'             
     e( 72 - 72) =     -3.91001  eV     1   --> A''            
     e( 73 - 73) =     -3.78009  eV     1   --> A'             
     e( 74 - 74) =     -3.77934  eV     1   --> A''            
     e( 75 - 75) =     -3.77855  eV     1   --> A''            
     e( 76 - 76) =     -3.77783  eV     1   --> A'             
     e( 77 - 77) =     -3.38194  eV     1   --> A'             
     e( 78 - 78) =     -3.31277  eV     1   --> A'             
     e( 79 - 79) =     -3.30305  eV     1   --> A''            
     e( 80 - 80) =     -3.28283  eV     1   --> A''            
     e( 81 - 81) =     -3.05673  eV     1   --> A'             
     e( 82 - 82) =     -3.05332  eV     1   --> A''            
     e( 83 - 83) =     -2.96925  eV     1   --> A'             
     e( 84 - 84) =     -2.96725  eV     1   --> A'             
     e( 85 - 85) =     -2.95220  eV     1   --> A''            
     e( 86 - 86) =     -2.76565  eV     1   --> A'             
     e( 87 - 87) =     -2.76184  eV     1   --> A''            
     e( 88 - 88) =     -2.58374  eV     1   --> A'             
     e( 89 - 89) =     -2.56547  eV     1   --> A''            
     e( 90 - 90) =     -2.56222  eV     1   --> A''            
     e( 91 - 91) =     -2.54661  eV     1   --> A'             
     e( 92 - 92) =     -2.03913  eV     1   --> A'             
     e( 93 - 93) =     -1.98532  eV     1   --> A''            
     e( 94 - 94) =     -1.98034  eV     1   --> A''            
     e( 95 - 95) =     -1.92648  eV     1   --> A'             
     e( 96 - 96) =     -1.92466  eV     1   --> A''            
     e( 97 - 97) =     -1.89388  eV     1   --> A'             
     e( 98 - 98) =     -1.88906  eV     1   --> A''            
     e( 99 - 99) =     -1.84509  eV     1   --> A'             
     e(100 -100) =     -1.84382  eV     1   --> A''            
     e(101 -101) =     -0.26858  eV     1   --> A'             
     e(102 -102) =     -0.08464  eV     1   --> A'             
     e(103 -103) =     -0.08405  eV     1   --> A''            
     e(104 -104) =     -0.04504  eV     1   --> A'             
     e(105 -105) =     -0.04103  eV     1   --> A''            
     e(106 -106) =      0.56122  eV     1   --> A'             
     e(107 -107) =      0.82513  eV     1   --> A'             
     e(108 -108) =      0.83093  eV     1   --> A'             
     e(109 -109) =      0.91800  eV     1   --> A'             
     e(110 -110) =      0.92045  eV     1   --> A''            
     e(111 -111) =      1.00634  eV     1   --> A''            
     e(112 -112) =      1.01651  eV     1   --> A'             
     e(113 -113) =      1.27376  eV     1   --> A'             
     e(114 -114) =      1.28095  eV     1   --> A'             
     e(115 -115) =      1.32039  eV     1   --> A''            
     e(116 -116) =      1.32254  eV     1   --> A'             
     e(117 -117) =      1.46223  eV     1   --> A'             
     e(118 -118) =      1.46377  eV     1   --> A''            
     e(119 -119) =      2.08514  eV     1   --> A'             
     e(120 -120) =      2.12655  eV     1   --> A'             

 **************************************************************************

     BANDS        : 11m55.72s CPU    13m48.93s WALL


   This run was terminated on:  22:41: 0  18Apr2020            

=------------------------------------------------------------------------------=
   JOB DONE.
=------------------------------------------------------------------------------=
