
     Program PWSCF v.6.5 starts on 13Apr2020 at 13: 2: 2 

     This program is part of the open-source Quantum ESPRESSO suite
     for quantum simulation of materials; please cite
         "P. Giannozzi et al., J. Phys.:Condens. Matter 21 395502 (2009);
         "P. Giannozzi et al., J. Phys.:Condens. Matter 29 465901 (2017);
          URL http://www.quantum-espresso.org", 
     in publications or presentations arising from this work. More details at
     http://www.quantum-espresso.org/quote

     Serial version
     Waiting for input...
     Reading input from standard input
Warning: card C 12.0107 C.PBE-MT_FHI.UPF ignored
Warning: card SI 28.0855 SI.PBE-MT_FHI.UPF ignored

     Current dimensions of program PWSCF are:
     Max number of different atomic species (ntypx) = 10
     Max number of k-points (npk) =  40000
     Max angular momentum in pseudopotentials (lmaxx) =  3

     IMPORTANT: XC functional enforced from input :
     Exchange-correlation= PBE
                           (   1   4   3   4   0   0   0)
     Any further DFT definition will be discarded
     Please, verify this is what you really want

               file Ge.pbe-mt_fhi.UPF: wavefunction(s)  4d 4f renormalized

     -------------------------------------------------
     Parameters for Dispersion (Grimme-D2) Correction:
     -------------------------------------------------
       atom      VdW radius       C_6     

        Ge         3.264        593.221
     Found symmetry operation: I + ( -0.0000  0.3333  0.0000)
     This is a supercell, fractional translations are disabled

     G-vector sticks info
     --------------------
     sticks:   dense  smooth     PW     G-vecs:    dense   smooth      PW
     Sum        4429    4429   1177               388955   388955   53541



     bravais-lattice index     =            4
     lattice parameter (alat)  =      23.1302  a.u.
     unit-cell volume          =   17511.3678 (a.u.)^3
     number of atoms/cell      =           18
     number of atomic types    =            1
     number of electrons       =        72.00
     number of Kohn-Sham states=           43
     kinetic-energy cutoff     =      30.0000  Ry
     charge density cutoff     =     120.0000  Ry
     convergence threshold     =      1.0E-04
     mixing beta               =       0.7000
     number of iterations used =            8  plain     mixing
     Exchange-correlation= PBE
                           (   1   4   3   4   0   0   0)

     celldm(1)=  23.130248  celldm(2)=   0.000000  celldm(3)=   1.633987
     celldm(4)=   0.000000  celldm(5)=   0.000000  celldm(6)=   0.000000

     crystal axes: (cart. coord. in units of alat)
               a(1) = (   1.000000   0.000000   0.000000 )  
               a(2) = (  -0.500000   0.866025   0.000000 )  
               a(3) = (   0.000000   0.000000   1.633987 )  

     reciprocal axes: (cart. coord. in units 2 pi/alat)
               b(1) = (  1.000000  0.577350 -0.000000 )  
               b(2) = (  0.000000  1.154701  0.000000 )  
               b(3) = (  0.000000 -0.000000  0.612000 )  


     PseudoPot. # 1 for Ge read from file:
     ./pseudo/Ge.pbe-mt_fhi.UPF
     MD5 check sum: b08ff19c3d362044f6e29226b459d86a
     Pseudo is Norm-conserving, Zval =  4.0
     Generated using FHI98PP, converted with fhi2upf.x v.5.0.2
     Using radial grid of  529 points,  3 beta functions with: 
                l(1) =   1
                l(2) =   2
                l(3) =   3

     atomic species   valence    mass     pseudopotential
        Ge             4.00    72.59000     Ge( 1.00)

      6 Sym. Ops. (no inversion) found



   Cartesian axes

     site n.     atom                  positions (alat units)
         1           Ge  tau(   1) = (   0.0000000   0.0000000   1.0804739  )
         2           Ge  tau(   2) = (   0.0000000   0.1924510   1.1353758  )
         3           Ge  tau(   3) = (  -0.1666667   0.2886751   1.0804739  )
         4           Ge  tau(   4) = (  -0.1666667   0.4811261   1.1353758  )
         5           Ge  tau(   5) = (  -0.3333333   0.5773503   1.0804739  )
         6           Ge  tau(   6) = (  -0.3333333   0.7698012   1.1353758  )
         7           Ge  tau(   7) = (   0.3333333   0.0000000   1.0804739  )
         8           Ge  tau(   8) = (   0.3333333   0.1924510   1.1353758  )
         9           Ge  tau(   9) = (   0.1666667   0.2886751   1.0804739  )
        10           Ge  tau(  10) = (   0.1666667   0.4811261   1.1353758  )
        11           Ge  tau(  11) = (   0.0000000   0.5773503   1.0804739  )
        12           Ge  tau(  12) = (   0.0000000   0.7698012   1.1353758  )
        13           Ge  tau(  13) = (   0.6666667   0.0000000   1.0804739  )
        14           Ge  tau(  14) = (   0.6666667   0.1924510   1.1353758  )
        15           Ge  tau(  15) = (   0.5000000   0.2886751   1.0804739  )
        16           Ge  tau(  16) = (   0.5000000   0.4811261   1.1353758  )
        17           Ge  tau(  17) = (   0.3333333   0.5773503   1.0804739  )
        18           Ge  tau(  18) = (   0.3333333   0.7698012   1.1353758  )

     number of k points=     3  Methfessel-Paxton smearing, width (Ry)=  0.0060
                       cart. coord. in units 2pi/alat
        k(    1) = (   0.0000000   0.0000000   0.0000000), wk =   0.2222222
        k(    2) = (   0.0000000   0.3849002   0.0000000), wk =   1.3333333
        k(    3) = (   0.3333333   0.5773503   0.0000000), wk =   0.4444444

     Dense  grid:   388955 G-vectors     FFT dimensions: (  81,  81, 135)

     Estimated max dynamical RAM per process >     980.51 MB

     Initial potential from superposition of free atoms

     starting charge   71.98354, renormalised to   72.00000

     negative rho (up, down):  2.387E-04 0.000E+00
     Starting wfcs are  288 randomized atomic wfcs

     total cpu time spent up to now is      168.1 secs

     Self-consistent Calculation

     iteration #  1     ecut=    30.00 Ry     beta= 0.70
     Davidson diagonalization with overlap
     ethr =  1.00E-02,  avg # of iterations =  2.0

     Threshold (ethr) on eigenvalues was too large:
     Diagonalizing with lowered threshold

     Davidson diagonalization with overlap
     ethr =  3.68E-04,  avg # of iterations =  3.0

     negative rho (up, down):  3.217E-05 0.000E+00

     total cpu time spent up to now is      267.2 secs

     total energy              =    -141.26132488 Ry
     Harris-Foulkes estimate   =    -141.38601522 Ry
     estimated scf accuracy    <       0.32673533 Ry

     iteration #  2     ecut=    30.00 Ry     beta= 0.70
     Davidson diagonalization with overlap
     ethr =  4.54E-04,  avg # of iterations =  2.0

     negative rho (up, down):  2.345E-06 0.000E+00

     total cpu time spent up to now is      309.1 secs

     total energy              =    -141.29583558 Ry
     Harris-Foulkes estimate   =    -141.29595561 Ry
     estimated scf accuracy    <       0.01374530 Ry

     iteration #  3     ecut=    30.00 Ry     beta= 0.70
     Davidson diagonalization with overlap
     ethr =  1.91E-05,  avg # of iterations =  3.7

     total cpu time spent up to now is      367.9 secs

     total energy              =    -141.29859799 Ry
     Harris-Foulkes estimate   =    -141.29867745 Ry
     estimated scf accuracy    <       0.00077837 Ry

     iteration #  4     ecut=    30.00 Ry     beta= 0.70
     Davidson diagonalization with overlap
     ethr =  1.08E-06,  avg # of iterations =  5.3

     total cpu time spent up to now is      425.6 secs

     End of self-consistent calculation

          k = 0.0000 0.0000 0.0000 ( 48515 PWs)   bands (ev):

   -14.0488 -12.9212 -12.9200 -12.9200 -12.9160 -12.9160 -12.9101 -11.1028
   -11.1011 -11.1011 -11.1000  -8.9260  -8.9244  -8.9244  -8.9217  -8.9216
    -8.9184  -6.5530  -6.5530  -6.3949  -4.6405  -4.6394  -4.6393  -4.6365
    -4.6365  -4.6321  -4.6273  -4.6267  -4.6267  -4.6232  -4.6211  -4.6210
    -3.4280  -3.4278  -2.8904  -2.8889  -2.8889  -2.8882  -2.6297  -1.6191
    -1.6183  -1.6170  -1.6166

          k = 0.0000 0.3849 0.0000 ( 48609 PWs)   bands (ev):

   -13.9179 -13.5303 -13.1539 -13.1523 -12.4643 -12.4628 -12.2339 -11.8340
   -11.8325 -10.3555 -10.3545 -10.0535  -9.6299  -9.6291  -8.3758  -8.3754
    -7.5301  -6.5650  -6.2181  -6.2180  -5.3659  -5.3654  -4.9997  -4.9372
    -4.9363  -4.8653  -4.7068  -4.7060  -4.5746  -4.1859  -4.1750  -4.1740
    -4.1353  -3.6824  -3.5654  -3.5642  -2.2537  -2.2528  -2.0994  -1.7446
    -1.7438  -1.4366  -1.1535

          k = 0.3333 0.5774 0.0000 ( 48552 PWs)   bands (ev):

   -13.6623 -13.6579 -13.6540 -12.5525 -12.5510 -12.5488 -11.9752 -11.9732
   -11.9713 -10.3252 -10.3242 -10.3233  -9.3971  -9.3951  -9.3927  -7.1706
    -7.1686  -7.1668  -5.7538  -5.7500  -5.7467  -5.5207  -5.5178  -5.5153
    -4.9679  -4.9657  -4.9639  -4.2265  -4.2247  -4.2223  -4.2170  -4.2156
    -4.2139  -3.7769  -3.7752  -3.7736  -2.2431  -2.2421  -2.2413  -1.5108
    -1.5092  -1.5070  -0.5591

     the Fermi energy is    -2.8891 ev

!    total energy              =    -141.29872822 Ry
     Harris-Foulkes estimate   =    -141.29878586 Ry
     estimated scf accuracy    <       0.00007232 Ry

     The total energy is the sum of the following terms:

     one-electron contribution =    -649.07420361 Ry
     hartree contribution      =     330.16848261 Ry
     xc contribution           =     -40.31309410 Ry
     ewald contribution        =     218.07745936 Ry
     Dispersion Correction     =      -0.15662060 Ry
     smearing contrib. (-TS)   =      -0.00075188 Ry

     convergence has been achieved in   4 iterations

     Forces acting on atoms (cartesian axes, Ry/au):

     atom    1 type  1   force =     0.00000000   -0.00000000   -0.00090402
     atom    2 type  1   force =     0.00000000    0.00001184    0.00095394
     atom    3 type  1   force =     0.00003697    0.00003012   -0.00098866
     atom    4 type  1   force =    -0.00007164   -0.00004136    0.00096889
     atom    5 type  1   force =     0.00004457    0.00001696   -0.00098866
     atom    6 type  1   force =     0.00001025   -0.00000592    0.00095394
     atom    7 type  1   force =     0.00000760   -0.00004708   -0.00098866
     atom    8 type  1   force =    -0.00003706   -0.00002140    0.00103236
     atom    9 type  1   force =    -0.00003697    0.00003012   -0.00098866
     atom   10 type  1   force =     0.00007164   -0.00004136    0.00096889
     atom   11 type  1   force =     0.00000000   -0.00000000   -0.00102888
     atom   12 type  1   force =     0.00000000    0.00008272    0.00096889
     atom   13 type  1   force =    -0.00000760   -0.00004708   -0.00098866
     atom   14 type  1   force =     0.00003706   -0.00002140    0.00103236
     atom   15 type  1   force =     0.00000000    0.00000000   -0.00100073
     atom   16 type  1   force =     0.00000000    0.00004280    0.00103236
     atom   17 type  1   force =    -0.00004457    0.00001696   -0.00098866
     atom   18 type  1   force =    -0.00001025   -0.00000592    0.00095394

     Total force =     0.004186     Total SCF correction =     0.009855
     SCF correction compared to forces is large: reduce conv_thr to get better values


     Computing stress (Cartesian axis) and pressure

          total   stress  (Ry/bohr**3)                   (kbar)     P=       -5.16
  -0.00004844   0.00000000   0.00000000           -7.13        0.00        0.00
   0.00000000  -0.00004844   0.00000000            0.00       -7.13        0.00
   0.00000000   0.00000000  -0.00000841            0.00        0.00       -1.24


     Writing output data file ./work/ge33_cdd.save/

     init_run     :    166.44s CPU    168.02s WALL (       1 calls)
     electrons    :    256.31s CPU    257.58s WALL (       1 calls)
     forces       :     21.17s CPU     21.29s WALL (       1 calls)
     stress       :     27.93s CPU     28.82s WALL (       1 calls)

     Called by init_run:
     wfcinit      :    164.72s CPU    166.13s WALL (       1 calls)
     potinit      :      0.80s CPU      0.91s WALL (       1 calls)
     hinit0       :      0.67s CPU      0.70s WALL (       1 calls)

     Called by electrons:
     c_bands      :    239.16s CPU    240.28s WALL (       5 calls)
     sum_band     :     14.49s CPU     14.49s WALL (       5 calls)
     v_of_rho     :      2.88s CPU      3.00s WALL (       5 calls)
     mix_rho      :      0.21s CPU      0.25s WALL (       5 calls)

     Called by c_bands:
     init_us_2    :      2.44s CPU      2.53s WALL (      39 calls)
     cegterg      :    231.43s CPU    232.54s WALL (      15 calls)

     Called by sum_band:

     Called by *egterg:
     h_psi        :    264.98s CPU    266.19s WALL (      66 calls)
     g_psi        :      0.28s CPU      0.28s WALL (      48 calls)
     cdiaghg      :      0.76s CPU      0.76s WALL (      60 calls)

     Called by h_psi:
     h_psi:calbec :     90.35s CPU     90.35s WALL (      66 calls)
     vloc_psi     :    100.67s CPU    100.98s WALL (      66 calls)
     add_vuspsi   :     73.45s CPU     73.68s WALL (      66 calls)

     General routines
     calbec       :    113.34s CPU    113.35s WALL (      81 calls)
     fft          :      1.35s CPU      1.36s WALL (      58 calls)
     ffts         :      0.12s CPU      0.12s WALL (       5 calls)
     fftw         :    100.96s CPU    101.23s WALL (    5759 calls)


     PWSCF        :   7m52.06s CPU   7m56.79s WALL


   This run was terminated on:  13: 9:59  13Apr2020            

=------------------------------------------------------------------------------=
   JOB DONE.
=------------------------------------------------------------------------------=
