
     Program PWSCF v.6.5 starts on 13Apr2020 at 13:32:28 

     This program is part of the open-source Quantum ESPRESSO suite
     for quantum simulation of materials; please cite
         "P. Giannozzi et al., J. Phys.:Condens. Matter 21 395502 (2009);
         "P. Giannozzi et al., J. Phys.:Condens. Matter 29 465901 (2017);
          URL http://www.quantum-espresso.org", 
     in publications or presentations arising from this work. More details at
     http://www.quantum-espresso.org/quote

     Serial version
     Waiting for input...
     Reading input from standard input

     Current dimensions of program PWSCF are:
     Max number of different atomic species (ntypx) = 10
     Max number of k-points (npk) =  40000
     Max angular momentum in pseudopotentials (lmaxx) =  3

     IMPORTANT: XC functional enforced from input :
     Exchange-correlation= PBE
                           (   1   4   3   4   0   0   0)
     Any further DFT definition will be discarded
     Please, verify this is what you really want

               file Ge.pbe-mt_fhi.UPF: wavefunction(s)  4d 4f renormalized
               file C.pbe-mt_fhi.UPF: wavefunction(s)  4f renormalized
               file Si.pbe-mt_fhi.UPF: wavefunction(s)  4f renormalized

     -------------------------------------------------
     Parameters for Dispersion (Grimme-D2) Correction:
     -------------------------------------------------
       atom      VdW radius       C_6     

        Ge         3.264        593.221
        C          2.744         60.710
        Si         3.243        320.200

     G-vector sticks info
     --------------------
     sticks:   dense  smooth     PW     G-vecs:    dense   smooth      PW
     Sum        4429    4429   1177               388955   388955   53541



     bravais-lattice index     =            4
     lattice parameter (alat)  =      23.1302  a.u.
     unit-cell volume          =   17511.3678 (a.u.)^3
     number of atoms/cell      =           50
     number of atomic types    =            3
     number of electrons       =       200.00
     number of Kohn-Sham states=          120
     kinetic-energy cutoff     =      30.0000  Ry
     charge density cutoff     =     120.0000  Ry
     convergence threshold     =      1.0E-04
     mixing beta               =       0.7000
     number of iterations used =            8  plain     mixing
     Exchange-correlation= PBE
                           (   1   4   3   4   0   0   0)

     celldm(1)=  23.130248  celldm(2)=   0.000000  celldm(3)=   1.633987
     celldm(4)=   0.000000  celldm(5)=   0.000000  celldm(6)=   0.000000

     crystal axes: (cart. coord. in units of alat)
               a(1) = (   1.000000   0.000000   0.000000 )  
               a(2) = (  -0.500000   0.866025   0.000000 )  
               a(3) = (   0.000000   0.000000   1.633987 )  

     reciprocal axes: (cart. coord. in units 2 pi/alat)
               b(1) = (  1.000000  0.577350 -0.000000 )  
               b(2) = (  0.000000  1.154701  0.000000 )  
               b(3) = (  0.000000 -0.000000  0.612000 )  


     PseudoPot. # 1 for Ge read from file:
     ./pseudo/Ge.pbe-mt_fhi.UPF
     MD5 check sum: b08ff19c3d362044f6e29226b459d86a
     Pseudo is Norm-conserving, Zval =  4.0
     Generated using FHI98PP, converted with fhi2upf.x v.5.0.2
     Using radial grid of  529 points,  3 beta functions with: 
                l(1) =   1
                l(2) =   2
                l(3) =   3

     PseudoPot. # 2 for C  read from file:
     ./pseudo/C.pbe-mt_fhi.UPF
     MD5 check sum: 058ca341f9d6d5327d9962fd88a91b65
     Pseudo is Norm-conserving, Zval =  4.0
     Generated using FHI98PP, converted with fhi2upf.x v.5.0.2
     Using radial grid of  461 points,  3 beta functions with: 
                l(1) =   0
                l(2) =   1
                l(3) =   3

     PseudoPot. # 3 for Si read from file:
     ./pseudo/Si.pbe-mt_fhi.UPF
     MD5 check sum: 259057c2adf9952f9ced37ae3d9e311d
     Pseudo is Norm-conserving, Zval =  4.0
     Generated using FHI98PP, converted with fhi2upf.x v.5.0.2
     Using radial grid of  495 points,  3 beta functions with: 
                l(1) =   0
                l(2) =   1
                l(3) =   3

     atomic species   valence    mass     pseudopotential
        Ge             4.00    72.59000     Ge( 1.00)
        C              4.00    12.01070     C ( 1.00)
        Si             4.00    28.08550     Si( 1.00)

      6 Sym. Ops. (no inversion) found



   Cartesian axes

     site n.     atom                  positions (alat units)
         1           Ge  tau(   1) = (   0.0000000   0.0000000   1.0804739  )
         2           Ge  tau(   2) = (   0.0000000   0.1924510   1.1353758  )
         3           Ge  tau(   3) = (  -0.1666667   0.2886751   1.0804739  )
         4           Ge  tau(   4) = (  -0.1666667   0.4811261   1.1353758  )
         5           Ge  tau(   5) = (  -0.3333333   0.5773503   1.0804739  )
         6           Ge  tau(   6) = (  -0.3333333   0.7698012   1.1353758  )
         7           Ge  tau(   7) = (   0.3333333   0.0000000   1.0804739  )
         8           Ge  tau(   8) = (   0.3333333   0.1924510   1.1353758  )
         9           Ge  tau(   9) = (   0.1666667   0.2886751   1.0804739  )
        10           Ge  tau(  10) = (   0.1666667   0.4811261   1.1353758  )
        11           Ge  tau(  11) = (   0.0000000   0.5773503   1.0804739  )
        12           Ge  tau(  12) = (   0.0000000   0.7698012   1.1353758  )
        13           Ge  tau(  13) = (   0.6666667   0.0000000   1.0804739  )
        14           Ge  tau(  14) = (   0.6666667   0.1924510   1.1353758  )
        15           Ge  tau(  15) = (   0.5000000   0.2886751   1.0804739  )
        16           Ge  tau(  16) = (   0.5000000   0.4811261   1.1353758  )
        17           Ge  tau(  17) = (   0.3333333   0.5773503   1.0804739  )
        18           Ge  tau(  18) = (   0.3333333   0.7698012   1.1353758  )
        19           C   tau(  19) = (   0.0000000   0.0000000   0.8169935  )
        20           Si  tau(  20) = (   0.0000000   0.1443382   0.8169935  )
        21           C   tau(  21) = (  -0.1250000   0.2165064   0.8169935  )
        22           Si  tau(  22) = (  -0.1250000   0.3608446   0.8169935  )
        23           C   tau(  23) = (  -0.2500000   0.4330127   0.8169935  )
        24           Si  tau(  24) = (  -0.2500000   0.5773509   0.8169935  )
        25           C   tau(  25) = (  -0.3750000   0.6495191   0.8169935  )
        26           Si  tau(  26) = (  -0.3750000   0.7938573   0.8169935  )
        27           C   tau(  27) = (   0.2500000   0.0000000   0.8169935  )
        28           Si  tau(  28) = (   0.2500000   0.1443382   0.8169935  )
        29           C   tau(  29) = (   0.1250000   0.2165064   0.8169935  )
        30           Si  tau(  30) = (   0.1250000   0.3608446   0.8169935  )
        31           C   tau(  31) = (   0.0000000   0.4330127   0.8169935  )
        32           Si  tau(  32) = (   0.0000000   0.5773509   0.8169935  )
        33           C   tau(  33) = (  -0.1250000   0.6495191   0.8169935  )
        34           Si  tau(  34) = (  -0.1250000   0.7938573   0.8169935  )
        35           C   tau(  35) = (   0.5000000   0.0000000   0.8169935  )
        36           Si  tau(  36) = (   0.5000000   0.1443382   0.8169935  )
        37           C   tau(  37) = (   0.3750000   0.2165064   0.8169935  )
        38           Si  tau(  38) = (   0.3750000   0.3608446   0.8169935  )
        39           C   tau(  39) = (   0.2500000   0.4330127   0.8169935  )
        40           Si  tau(  40) = (   0.2500000   0.5773509   0.8169935  )
        41           C   tau(  41) = (   0.1250000   0.6495191   0.8169935  )
        42           Si  tau(  42) = (   0.1250000   0.7938573   0.8169935  )
        43           C   tau(  43) = (   0.7500000   0.0000000   0.8169935  )
        44           Si  tau(  44) = (   0.7500000   0.1443382   0.8169935  )
        45           C   tau(  45) = (   0.6250000   0.2165064   0.8169935  )
        46           Si  tau(  46) = (   0.6250000   0.3608446   0.8169935  )
        47           C   tau(  47) = (   0.5000000   0.4330127   0.8169935  )
        48           Si  tau(  48) = (   0.5000000   0.5773509   0.8169935  )
        49           C   tau(  49) = (   0.3750000   0.6495191   0.8169935  )
        50           Si  tau(  50) = (   0.3750000   0.7938573   0.8169935  )

     number of k points=     3  Methfessel-Paxton smearing, width (Ry)=  0.0060
                       cart. coord. in units 2pi/alat
        k(    1) = (   0.0000000   0.0000000   0.0000000), wk =   0.2222222
        k(    2) = (   0.0000000   0.3849002   0.0000000), wk =   1.3333333
        k(    3) = (   0.3333333   0.5773503   0.0000000), wk =   0.4444444

     Dense  grid:   388955 G-vectors     FFT dimensions: (  81,  81, 135)

     Estimated max dynamical RAM per process >       2.21 GB

     Initial potential from superposition of free atoms

     starting charge  199.97158, renormalised to  200.00000

     negative rho (up, down):  6.690E-03 0.000E+00
     Starting wfcs are  800 randomized atomic wfcs

     total cpu time spent up to now is     1015.4 secs

     Self-consistent Calculation

     iteration #  1     ecut=    30.00 Ry     beta= 0.70
     Davidson diagonalization with overlap
     ethr =  1.00E-02,  avg # of iterations =  2.0

     negative rho (up, down):  1.406E-03 0.000E+00

     total cpu time spent up to now is     1315.1 secs

     total energy              =    -444.60641093 Ry
     Harris-Foulkes estimate   =    -451.60269338 Ry
     estimated scf accuracy    <      10.38189728 Ry

     iteration #  2     ecut=    30.00 Ry     beta= 0.70
     Davidson diagonalization with overlap
     ethr =  5.19E-03,  avg # of iterations =  4.7

     negative rho (up, down):  1.042E-03 0.000E+00

     total cpu time spent up to now is     1680.1 secs

     total energy              =    -436.80126712 Ry
     Harris-Foulkes estimate   =    -452.49673657 Ry
     estimated scf accuracy    <      45.79958789 Ry

     iteration #  3     ecut=    30.00 Ry     beta= 0.70
     Davidson diagonalization with overlap
     ethr =  5.19E-03,  avg # of iterations =  7.0

     negative rho (up, down):  4.339E-04 0.000E+00

     total cpu time spent up to now is     2125.4 secs

     total energy              =    -438.25881272 Ry
     Harris-Foulkes estimate   =    -456.25704406 Ry
     estimated scf accuracy    <     143.70181477 Ry

     iteration #  4     ecut=    30.00 Ry     beta= 0.70
     Davidson diagonalization with overlap
     ethr =  5.19E-03,  avg # of iterations =  6.0

     negative rho (up, down):  2.725E-04 0.000E+00

     total cpu time spent up to now is     2452.5 secs

     total energy              =    -448.51015448 Ry
     Harris-Foulkes estimate   =    -448.84773153 Ry
     estimated scf accuracy    <       1.12340532 Ry

     iteration #  5     ecut=    30.00 Ry     beta= 0.70
     Davidson diagonalization with overlap
     ethr =  5.62E-04,  avg # of iterations =  7.0

     negative rho (up, down):  6.221E-05 0.000E+00

     total cpu time spent up to now is     2766.3 secs

     total energy              =    -448.65236830 Ry
     Harris-Foulkes estimate   =    -448.71342565 Ry
     estimated scf accuracy    <       0.18298884 Ry

     iteration #  6     ecut=    30.00 Ry     beta= 0.70
     Davidson diagonalization with overlap
     ethr =  9.15E-05,  avg # of iterations =  8.7

     negative rho (up, down):  5.107E-07 0.000E+00

     total cpu time spent up to now is     3087.5 secs

     total energy              =    -448.65083765 Ry
     Harris-Foulkes estimate   =    -448.69203654 Ry
     estimated scf accuracy    <       0.10625611 Ry

     iteration #  7     ecut=    30.00 Ry     beta= 0.70
     Davidson diagonalization with overlap
     ethr =  5.31E-05,  avg # of iterations =  6.3

     total cpu time spent up to now is     3365.4 secs

     total energy              =    -448.66642065 Ry
     Harris-Foulkes estimate   =    -448.68543949 Ry
     estimated scf accuracy    <       0.06217504 Ry

     iteration #  8     ecut=    30.00 Ry     beta= 0.70
     Davidson diagonalization with overlap
     ethr =  3.11E-05,  avg # of iterations =  2.7

     total cpu time spent up to now is     3601.2 secs

     total energy              =    -448.67608076 Ry
     Harris-Foulkes estimate   =    -448.67689634 Ry
     estimated scf accuracy    <       0.00220046 Ry

     iteration #  9     ecut=    30.00 Ry     beta= 0.70
     Davidson diagonalization with overlap
     ethr =  1.10E-06,  avg # of iterations =  9.3

     total cpu time spent up to now is     4036.5 secs

     total energy              =    -448.67677712 Ry
     Harris-Foulkes estimate   =    -448.67724566 Ry
     estimated scf accuracy    <       0.00130206 Ry

     iteration # 10     ecut=    30.00 Ry     beta= 0.70
     Davidson diagonalization with overlap
     ethr =  6.51E-07,  avg # of iterations =  2.7

     total cpu time spent up to now is     4299.4 secs

     total energy              =    -448.67693908 Ry
     Harris-Foulkes estimate   =    -448.67709952 Ry
     estimated scf accuracy    <       0.00060419 Ry

     iteration # 11     ecut=    30.00 Ry     beta= 0.70
     Davidson diagonalization with overlap
     ethr =  3.02E-07,  avg # of iterations =  2.7

     total cpu time spent up to now is     4535.4 secs

     total energy              =    -448.67695838 Ry
     Harris-Foulkes estimate   =    -448.67704440 Ry
     estimated scf accuracy    <       0.00021545 Ry

     iteration # 12     ecut=    30.00 Ry     beta= 0.70
     Davidson diagonalization with overlap
     ethr =  1.08E-07,  avg # of iterations =  3.3

     total cpu time spent up to now is     4812.4 secs

     End of self-consistent calculation

          k = 0.0000 0.0000 0.0000 ( 48515 PWs)   bands (ev):

   -15.9139 -14.9212 -14.9018 -14.9018 -14.8670 -14.8670 -14.8481 -13.1700
   -13.1589 -13.1057 -13.1057 -13.0941 -13.0941 -12.8845 -12.8845 -12.8799
   -12.0283 -10.9158 -10.9066 -10.9066 -10.8898 -10.8898 -10.8773  -9.9474
    -9.9474  -9.9448  -9.1434  -9.1407  -9.0573  -9.0573  -8.7065  -8.7064
    -8.6974  -8.6974  -8.6651  -8.6612  -6.9441  -6.9399  -6.9399  -6.9328
    -6.9328  -6.9206  -6.7016  -6.7016  -6.6758  -6.6651  -6.6651  -6.6553
    -6.5321  -6.5031  -6.5031  -6.4775  -6.4774  -6.4671  -6.1613  -4.9936
    -4.9736  -4.9736  -4.9379  -4.9379  -4.9183  -4.8099  -4.8098  -4.8093
    -4.5927  -4.5927  -4.1392  -4.1345  -4.1345  -4.1193  -4.1192  -4.1113
    -3.9701  -3.2343  -3.2294  -3.2248  -3.2247  -3.0107  -3.0107  -2.8599
    -2.8598  -2.8008  -2.7904  -2.7904  -2.6159  -2.6142  -2.6142  -2.5838
    -2.5631  -2.5631  -2.3489  -2.3489  -2.3380  -2.2786  -2.2650  -2.2650
    -1.4021  -1.4020  -0.7396  -0.7396  -0.6389  -0.6092  -0.6002  -0.1257
    -0.1257  -0.1048   0.3563   0.3563   0.4125   0.6213   0.6827   0.6828
     1.0969   1.0969   1.1168   1.1956   1.4586   1.4586   1.5838   1.5838

          k = 0.0000 0.3849 0.0000 ( 48609 PWs)   bands (ev):

   -15.7977 -15.4491 -15.1074 -15.1055 -14.4531 -14.4507 -14.1403 -13.8388
   -13.8369 -13.3341 -13.0781 -13.0678 -12.9522 -12.9433 -12.5227 -12.5226
   -11.8975 -11.5101 -11.1338 -11.1323 -10.4452 -10.4448 -10.2140  -9.8177
    -9.8163  -9.7064  -9.7039  -9.3383  -9.2864  -9.2778  -9.1205  -9.1203
    -8.3282  -8.3275  -8.0670  -8.0057  -8.0026  -7.9918  -7.6195  -7.6183
    -7.2770  -7.2741  -7.2203  -7.2167  -6.4072  -6.4057  -6.1408  -6.1392
    -6.0627  -5.8871  -5.8205  -5.8147  -5.7168  -5.7092  -5.2400  -5.2392
    -5.1731  -5.1523  -5.1395  -4.9799  -4.7283  -4.6946  -4.6931  -4.5212
    -4.5191  -4.4744  -4.2764  -4.2757  -4.2397  -4.1997  -4.1990  -4.1558
    -3.8210  -3.8203  -3.7396  -3.7201  -3.3791  -3.3785  -3.3666  -3.2845
    -3.0379  -3.0144  -2.8930  -2.8664  -2.8582  -2.7742  -2.7677  -2.7149
    -2.4620  -2.4203  -2.4186  -2.2819  -2.2675  -2.1631  -1.8612  -1.8602
    -1.8170  -1.6560  -1.2776  -1.2714  -0.3081  -0.2777  -0.0774   0.0074
     0.0092   0.5323   0.5672   0.6178   0.6182   0.7701   0.9256   1.0320
     1.1516   1.2482   1.2813   1.2960   1.5278   1.5468   1.6479   1.6764

          k = 0.3333 0.5774 0.0000 ( 48552 PWs)   bands (ev):

   -15.5990 -15.5544 -15.5384 -14.5577 -14.5568 -14.5554 -13.6999 -13.6788
   -13.6759 -13.6389 -13.6365 -13.6191 -12.6929 -12.6417 -12.6268 -12.2898
   -11.6479 -11.6451 -11.6199 -10.5333 -10.5327 -10.5310  -9.9670  -9.9505
    -9.9455  -9.6880  -9.6591  -9.6367  -9.2541  -8.7045  -8.6959  -8.6861
    -8.6695  -8.6574  -8.6506  -8.3061  -8.3007  -8.2850  -7.7367  -7.3834
    -7.3794  -7.3758  -6.8442  -6.8419  -6.8413  -6.2918  -6.2823  -6.2613
    -5.9108  -5.8689  -5.8659  -5.0817  -5.0787  -5.0669  -5.0502  -5.0422
    -5.0398  -5.0080  -5.0075  -5.0058  -4.8830  -4.8726  -4.8622  -4.6249
    -4.6217  -4.6193  -4.5646  -4.5494  -4.5426  -3.8036  -3.7952  -3.7824
    -3.7612  -3.7556  -3.7437  -3.6969  -3.6967  -3.6712  -3.6666  -3.6451
    -3.6417  -3.3723  -3.3587  -3.3511  -2.7194  -2.7155  -2.7077  -2.5353
    -2.4726  -2.3902  -2.2101  -2.2089  -2.1990  -1.9684  -1.9382  -1.8797
    -1.8595  -1.4807  -1.4779  -1.4774  -0.3652  -0.2495  -0.1162  -0.0941
     0.0735   0.4489   0.8119   0.8667   1.1562   1.1641   1.1876   1.2782
     1.3650   1.4047   1.4453   1.4494   1.4782   1.4839   1.5706   1.8347

     the Fermi energy is    -0.6822 ev

!    total energy              =    -448.67697361 Ry
     Harris-Foulkes estimate   =    -448.67701330 Ry
     estimated scf accuracy    <       0.00004750 Ry

     The total energy is the sum of the following terms:

     one-electron contribution =   -3304.00627114 Ry
     hartree contribution      =    1689.26511757 Ry
     xc contribution           =    -136.00551706 Ry
     ewald contribution        =    1302.61702172 Ry
     Dispersion Correction     =      -0.54738015 Ry
     smearing contrib. (-TS)   =       0.00005545 Ry

     convergence has been achieved in  12 iterations

     Forces acting on atoms (cartesian axes, Ry/au):

     atom    1 type  1   force =     0.00000000    0.00000000   -0.00479083
     atom    2 type  1   force =     0.00000000    0.00235111    0.00571022
     atom    3 type  1   force =     0.00265874   -0.00019370   -0.00487824
     atom    4 type  1   force =     0.00073203    0.00042264    0.00610263
     atom    5 type  1   force =     0.00116162    0.00239938   -0.00487824
     atom    6 type  1   force =     0.00203613   -0.00117556    0.00571022
     atom    7 type  1   force =    -0.00149712   -0.00220569   -0.00487824
     atom    8 type  1   force =     0.00139529    0.00080557    0.00341395
     atom    9 type  1   force =    -0.00265874   -0.00019370   -0.00487824
     atom   10 type  1   force =    -0.00073203    0.00042264    0.00610263
     atom   11 type  1   force =     0.00000000   -0.00000000   -0.01000931
     atom   12 type  1   force =     0.00000000   -0.00084527    0.00610263
     atom   13 type  1   force =     0.00149712   -0.00220569   -0.00487824
     atom   14 type  1   force =    -0.00139529    0.00080557    0.00341395
     atom   15 type  1   force =     0.00000000   -0.00000000   -0.00262930
     atom   16 type  1   force =     0.00000000   -0.00161114    0.00341395
     atom   17 type  1   force =    -0.00116162    0.00239938   -0.00487824
     atom   18 type  1   force =    -0.00203613   -0.00117556    0.00571022
     atom   19 type  2   force =     0.00000000   -0.00000000   -0.00482287
     atom   20 type  3   force =     0.00000000    0.00589462    0.00215998
     atom   21 type  2   force =     0.00217221   -0.00637065   -0.00561335
     atom   22 type  3   force =     0.00168005    0.00671107    0.00845280
     atom   23 type  2   force =    -0.00215193   -0.00124242   -0.00624888
     atom   24 type  3   force =     0.00665198   -0.00190057    0.00845280
     atom   25 type  2   force =    -0.00443104    0.00506651   -0.00561335
     atom   26 type  3   force =     0.00510489   -0.00294731    0.00215998
     atom   27 type  2   force =    -0.00660324    0.00130414   -0.00561335
     atom   28 type  3   force =     0.00383360    0.00221333    0.00312911
     atom   29 type  2   force =    -0.00217221   -0.00637065   -0.00561335
     atom   30 type  3   force =    -0.00168005    0.00671107    0.00845280
     atom   31 type  2   force =     0.00000000   -0.00552051   -0.00677565
     atom   32 type  3   force =     0.00000000   -0.00000000    0.01839188
     atom   33 type  2   force =    -0.00478091    0.00276026   -0.00677565
     atom   34 type  3   force =     0.00497193   -0.00481050    0.00845280
     atom   35 type  2   force =    -0.00000000    0.00248484   -0.00624888
     atom   36 type  3   force =     0.00000000   -0.00180956    0.00368763
     atom   37 type  2   force =    -0.00240197   -0.00138678   -0.00581460
     atom   38 type  3   force =    -0.00156712    0.00090478    0.00368763
     atom   39 type  2   force =     0.00215193   -0.00124242   -0.00624888
     atom   40 type  3   force =    -0.00665198   -0.00190057    0.00845280
     atom   41 type  2   force =     0.00478091    0.00276026   -0.00677565
     atom   42 type  3   force =    -0.00497193   -0.00481050    0.00845280
     atom   43 type  2   force =     0.00660324    0.00130414   -0.00561335
     atom   44 type  3   force =    -0.00383360    0.00221333    0.00312911
     atom   45 type  2   force =     0.00240197   -0.00138678   -0.00581460
     atom   46 type  3   force =     0.00156712    0.00090478    0.00368763
     atom   47 type  2   force =    -0.00000000    0.00277355   -0.00581460
     atom   48 type  3   force =    -0.00000000   -0.00442666    0.00312911
     atom   49 type  2   force =     0.00443104    0.00506651   -0.00561335
     atom   50 type  3   force =    -0.00510489   -0.00294731    0.00215998

     Total force =     0.053583     Total SCF correction =     0.013420
     SCF correction compared to forces is large: reduce conv_thr to get better values


     Computing stress (Cartesian axis) and pressure

          total   stress  (Ry/bohr**3)                   (kbar)     P=      -19.84
  -0.00012019   0.00000000   0.00000000          -17.68        0.00        0.00
   0.00000000  -0.00012019  -0.00000000            0.00      -17.68       -0.00
   0.00000000  -0.00000000  -0.00016417            0.00       -0.00      -24.15


     Writing output data file ./work/gesic2_cdd.save/

     init_run     :   1005.37s CPU   1015.21s WALL (       1 calls)
     electrons    :   3770.18s CPU   3797.14s WALL (       1 calls)
     forces       :    128.66s CPU    128.86s WALL (       1 calls)
     stress       :    145.26s CPU    150.11s WALL (       1 calls)

     Called by init_run:
     wfcinit      :   1001.33s CPU   1011.02s WALL (       1 calls)
     potinit      :      1.26s CPU      1.34s WALL (       1 calls)
     hinit0       :      2.56s CPU      2.59s WALL (       1 calls)

     Called by electrons:
     c_bands      :   3661.14s CPU   3687.28s WALL (      12 calls)
     sum_band     :     99.01s CPU     99.57s WALL (      12 calls)
     v_of_rho     :      8.59s CPU      8.72s WALL (      13 calls)
     mix_rho      :      1.30s CPU      1.37s WALL (      12 calls)

     Called by c_bands:
     init_us_2    :     10.26s CPU     10.50s WALL (      81 calls)
     cegterg      :   3622.75s CPU   3648.69s WALL (      36 calls)

     Called by sum_band:

     Called by *egterg:
     h_psi        :   2825.22s CPU   2846.09s WALL (     226 calls)
     g_psi        :      2.13s CPU      2.13s WALL (     187 calls)
     cdiaghg      :     43.35s CPU     43.62s WALL (     223 calls)

     Called by h_psi:
     h_psi:calbec :   1218.09s CPU   1224.80s WALL (     226 calls)
     vloc_psi     :    613.47s CPU    617.15s WALL (     226 calls)
     add_vuspsi   :    990.38s CPU    997.13s WALL (     226 calls)

     General routines
     calbec       :   1367.00s CPU   1374.31s WALL (     241 calls)
     fft          :      3.25s CPU      3.26s WALL (     137 calls)
     ffts         :      0.31s CPU      0.31s WALL (      12 calls)
     fftw         :    620.19s CPU    623.91s WALL (   33266 calls)


     PWSCF        :      1h24m CPU      1h24m WALL


   This run was terminated on:  14:57:22  13Apr2020            

=------------------------------------------------------------------------------=
   JOB DONE.
=------------------------------------------------------------------------------=
