
     Program PWSCF v.6.8 starts on  8Aug2021 at 17:52:58 

     This program is part of the open-source Quantum ESPRESSO suite
     for quantum simulation of materials; please cite
         "P. Giannozzi et al., J. Phys.:Condens. Matter 21 395502 (2009);
         "P. Giannozzi et al., J. Phys.:Condens. Matter 29 465901 (2017);
         "P. Giannozzi et al., J. Chem. Phys. 152 154105 (2020);
          URL http://www.quantum-espresso.org", 
     in publications or presentations arising from this work. More details at
     http://www.quantum-espresso.org/quote

     Serial version
     2116 MiB available memory on the printing compute node when the environment starts

     Waiting for input...
     Reading input from standard input

     Current dimensions of program PWSCF are:
     Max number of different atomic species (ntypx) = 10
     Max number of k-points (npk) =  40000
     Max angular momentum in pseudopotentials (lmaxx) =  4

     IMPORTANT: XC functional enforced from input :
     Exchange-correlation= PBE
                           (   1   4   3   4   0   0   0)
     Any further DFT definition will be discarded
     Please, verify this is what you really want


     --------------------------------------------
     DFT-D3 Dispersion Correction (3-body terms):
     --------------------------------------------
       Reference C6 values for interpolation: 

         atom   Coordination number   C6
         C          0.000            98.23
         C          0.987            86.49
         C          1.998            58.72
         C          2.999            51.56
         C          3.984            36.41
         Si         0.000           635.71
         Si         0.951           540.53
         Si         1.944           466.25
         Si         2.941           443.01
         Si         3.868           299.55
         Ge         0.000           727.09
         Ge         0.943           633.70
         Ge         1.945           573.31
         Ge         2.919           459.90
         Ge         3.897           360.58

       Values used:

         atom   Coordination number  R0_AB[au]  C6      C8
         C          3.021            2.750     51.27   1482.68
         Ge         4.209            3.649    360.75  33226.45
         C          3.021            2.750     51.27   1482.68
         Ge         4.209            3.649    360.75  33226.45
         C          3.021            2.750     51.27   1482.68
         Ge         4.209            3.649    360.75  33226.45
         C          3.021            2.750     51.27   1482.68
         Ge         4.209            3.649    360.75  33226.45
         C          3.005            2.750     51.32   1484.39
         Si         3.675            3.583    314.63  22504.58
         C          3.005            2.750     51.32   1484.39
         Si         3.675            3.583    314.63  22504.58
         C          3.005            2.750     51.32   1484.39
         Si         3.675            3.583    314.63  22504.58
         C          3.005            2.750     51.32   1484.39
         Si         3.675            3.583    314.63  22504.58

         Molecular C6 ( Ry / a.u.^6 ) =     41472.77

     Found symmetry operation: I + ( -0.0000  0.5000  0.0000)
     This is a supercell, fractional translations are disabled

     G-vector sticks info
     --------------------
     sticks:   dense  smooth     PW     G-vecs:    dense   smooth      PW
     Sum        1993    1597    439               282873   202403   29675

     Using Slab Decomposition



     bravais-lattice index     =            4
     lattice parameter (alat)  =      12.0339  a.u.
     unit-cell volume          =    5924.8697 (a.u.)^3
     number of atoms/cell      =           16
     number of atomic types    =            3
     number of electrons       =        64.00
     number of Kohn-Sham states=           38
     kinetic-energy cutoff     =      40.0000  Ry
     charge density cutoff     =     200.0000  Ry
     scf convergence threshold =      1.0E-06
     mixing beta               =       0.7000
     number of iterations used =            8  plain     mixing
     Exchange-correlation= PBE
                           (   1   4   3   4   0   0   0)

     celldm(1)=  12.033852  celldm(2)=   0.000000  celldm(3)=   3.925855
     celldm(4)=   0.000000  celldm(5)=   0.000000  celldm(6)=   0.000000

     crystal axes: (cart. coord. in units of alat)
               a(1) = (   1.000000   0.000000   0.000000 )  
               a(2) = (  -0.500000   0.866025   0.000000 )  
               a(3) = (   0.000000   0.000000   3.925855 )  

     reciprocal axes: (cart. coord. in units 2 pi/alat)
               b(1) = (  1.000000  0.577350 -0.000000 )  
               b(2) = (  0.000000  1.154701  0.000000 )  
               b(3) = (  0.000000 -0.000000  0.254722 )  


     PseudoPot. # 1 for C  read from file:
     ./pseudo/C.pbe-n-rrkjus_psl.1.0.0.UPF
     MD5 check sum: 1fdd950c42eb37d8afe3dd2f8d12311e
     Pseudo is Ultrasoft + core correction, Zval =  4.0
     Generated using &quot;atomic&quot; code by A. Dal Corso  v.6.3MaX
     Using radial grid of 1073 points,  4 beta functions with: 
                l(1) =   0
                l(2) =   0
                l(3) =   1
                l(4) =   1
     Q(r) pseudized with 0 coefficients 


     PseudoPot. # 2 for Ge read from file:
     ./pseudo/Ge.pbe-n-kjpaw_psl.1.0.0.UPF
     MD5 check sum: 86cd6a1ce4ead6fa7a4673d64b86017a
     Pseudo is Projector augmented-wave + core cor, Zval =  4.0
     Generated using &quot;atomic&quot; code by A. Dal Corso  v.6.3
     Shape of augmentation charge: PSQ
     Using radial grid of 1207 points,  4 beta functions with: 
                l(1) =   0
                l(2) =   0
                l(3) =   1
                l(4) =   1
     Q(r) pseudized with 0 coefficients 


     PseudoPot. # 3 for Si read from file:
     ./pseudo/Si.pbe-n-rrkjus_psl.1.0.0.UPF
     MD5 check sum: fa25574f73a70a4139f2adfbefec430c
     Pseudo is Ultrasoft + core correction, Zval =  4.0
     Generated using &quot;atomic&quot; code by A. Dal Corso  v.6.3
     Using radial grid of 1141 points,  6 beta functions with: 
                l(1) =   0
                l(2) =   0
                l(3) =   1
                l(4) =   1
                l(5) =   2
                l(6) =   2
     Q(r) pseudized with 0 coefficients 


     atomic species   valence    mass     pseudopotential
        C              4.00    12.01070     C ( 1.00)
        Ge             4.00    72.64000     Ge( 1.00)
        Si             4.00    28.08550     Si( 1.00)

      2 Sym. Ops. (no inversion) found


                                    s                        frac. trans.

      isym =  1     identity                                     

 cryst.   s( 1) = (     1          0          0      )
                  (     0          1          0      )
                  (     0          0          1      )

 cart.    s( 1) = (  1.0000000  0.0000000  0.0000000 )
                  (  0.0000000  1.0000000  0.0000000 )
                  (  0.0000000  0.0000000  1.0000000 )


      isym =  2     inv. 180 deg rotation - cart. axis [1,0,0]   

 cryst.   s( 2) = (    -1          0          0      )
                  (     1          1          0      )
                  (     0          0          1      )

 cart.    s( 2) = ( -1.0000000  0.0000000  0.0000000 )
                  (  0.0000000  1.0000000  0.0000000 )
                  (  0.0000000  0.0000000  1.0000000 )


     point group C_s (m)    
     there are  2 classes
     the character table:

       E     s    
A'     1.00  1.00
A''    1.00 -1.00

     the symmetry operations in each class and the name of the first element:

     E        1
          identity                                               
     s        2
          inv. 180 deg rotation - cart. axis [1,0,0]             

   Cartesian axes

     site n.     atom                  positions (alat units)
         1           C   tau(   1) = (  -0.0000001   0.2802090   1.5703419  )
         2           Ge  tau(   2) = (  -0.0000001  -0.0000000   1.5703419  )
         3           C   tau(   3) = (  -0.2500001   0.7132217   1.5703419  )
         4           Ge  tau(   4) = (  -0.2500001   0.4330127   1.5703419  )
         5           C   tau(   5) = (   0.4999999   0.2802090   1.5703419  )
         6           Ge  tau(   6) = (   0.4999999  -0.0000000   1.5703419  )
         7           C   tau(   7) = (   0.2499999   0.7132217   1.5703419  )
         8           Ge  tau(   8) = (   0.2499999   0.4330127   1.5703419  )
         9           C   tau(   9) = (   0.5000000   0.0000000   2.2588036  )
        10           Si  tau(  10) = (   0.5000000   0.2802090   2.2588036  )
        11           C   tau(  11) = (  -0.2500000   0.4330127   2.2588036  )
        12           Si  tau(  12) = (  -0.2500000   0.7132217   2.2588036  )
        13           C   tau(  13) = (   0.0000000   0.0000000   2.2588036  )
        14           Si  tau(  14) = (   0.0000000   0.2802090   2.2588036  )
        15           C   tau(  15) = (   0.2500000   0.4330127   2.2588036  )
        16           Si  tau(  16) = (   0.2500000   0.7132217   2.2588036  )

   Crystallographic axes

     site n.     atom                  positions (cryst. coord.)
         1           C   tau(   1) = (  0.1617787  0.3235575  0.4000000  )
         2           Ge  tau(   2) = ( -0.0000001 -0.0000000  0.4000000  )
         3           C   tau(   3) = (  0.1617787  0.8235575  0.4000000  )
         4           Ge  tau(   4) = ( -0.0000001  0.5000000  0.4000000  )
         5           C   tau(   5) = (  0.6617787  0.3235575  0.4000000  )
         6           Ge  tau(   6) = (  0.4999999 -0.0000000  0.4000000  )
         7           C   tau(   7) = (  0.6617787  0.8235575  0.4000000  )
         8           Ge  tau(   8) = (  0.4999999  0.5000000  0.4000000  )
         9           C   tau(   9) = (  0.5000000  0.0000000  0.5753661  )
        10           Si  tau(  10) = (  0.6617788  0.3235575  0.5753661  )
        11           C   tau(  11) = ( -0.0000000  0.5000000  0.5753661  )
        12           Si  tau(  12) = (  0.1617788  0.8235575  0.5753661  )
        13           C   tau(  13) = (  0.0000000  0.0000000  0.5753661  )
        14           Si  tau(  14) = (  0.1617788  0.3235575  0.5753661  )
        15           C   tau(  15) = (  0.5000000  0.5000000  0.5753661  )
        16           Si  tau(  16) = (  0.6617788  0.8235575  0.5753661  )

     number of k points=    13  Marzari-Vanderbilt smearing, width (Ry)=  0.0500
                       cart. coord. in units 2pi/alat
        k(    1) = (   0.0000000   0.0000000   0.0000000), wk =   0.0555556
        k(    2) = (   0.0000000   0.1924501   0.0000000), wk =   0.1111111
        k(    3) = (   0.0000000   0.3849002   0.0000000), wk =   0.1111111
        k(    4) = (   0.0000000  -0.5773503   0.0000000), wk =   0.0555556
        k(    5) = (   0.1666667   0.2886751   0.0000000), wk =   0.2222222
        k(    6) = (   0.1666667   0.4811252   0.0000000), wk =   0.2222222
        k(    7) = (   0.3333333   0.5773503   0.0000000), wk =   0.1111111
        k(    8) = (  -0.1666667   0.0962250   0.0000000), wk =   0.2222222
        k(    9) = (  -0.3333333   0.1924501   0.0000000), wk =   0.2222222
        k(   10) = (   0.5000000  -0.2886751   0.0000000), wk =   0.1111111
        k(   11) = (   0.3333333   0.0000000   0.0000000), wk =   0.1111111
        k(   12) = (  -0.3333333   0.3849002   0.0000000), wk =   0.2222222
        k(   13) = (   0.5000000   0.0962250   0.0000000), wk =   0.2222222

                       cryst. coord.
        k(    1) = (   0.0000000   0.0000000   0.0000000), wk =   0.0555556
        k(    2) = (   0.0000000   0.1666667   0.0000000), wk =   0.1111111
        k(    3) = (   0.0000000   0.3333333   0.0000000), wk =   0.1111111
        k(    4) = (   0.0000000  -0.5000000   0.0000000), wk =   0.0555556
        k(    5) = (   0.1666667   0.1666667   0.0000000), wk =   0.2222222
        k(    6) = (   0.1666667   0.3333333   0.0000000), wk =   0.2222222
        k(    7) = (   0.3333333   0.3333333   0.0000000), wk =   0.1111111
        k(    8) = (  -0.1666667   0.1666667   0.0000000), wk =   0.2222222
        k(    9) = (  -0.3333333   0.3333333   0.0000000), wk =   0.2222222
        k(   10) = (   0.5000000  -0.5000000   0.0000000), wk =   0.1111111
        k(   11) = (   0.3333333  -0.1666667   0.0000000), wk =   0.1111111
        k(   12) = (  -0.3333333   0.5000000   0.0000000), wk =   0.2222222
        k(   13) = (   0.5000000  -0.1666667   0.0000000), wk =   0.2222222

     Dense  grid:   282873 G-vectors     FFT dimensions: (  60,  60, 216)

     Smooth grid:   202403 G-vectors     FFT dimensions: (  50,  50, 192)

     Dynamical RAM for                 wfc:      14.68 MB

     Dynamical RAM for     wfc (w. buffer):     205.47 MB

     Dynamical RAM for           str. fact:      12.95 MB

     Dynamical RAM for           local pot:       0.00 MB

     Dynamical RAM for          nlocal pot:      64.88 MB

     Dynamical RAM for                qrad:       3.41 MB

     Dynamical RAM for          rho,v,vnew:      30.75 MB

     Dynamical RAM for               rhoin:      10.25 MB

     Dynamical RAM for            rho*nmix:      69.06 MB

     Dynamical RAM for           G-vectors:      17.73 MB

     Dynamical RAM for          h,s,v(r/c):       0.26 MB

     Dynamical RAM for          <psi|beta>:       0.10 MB

     Dynamical RAM for                 psi:      29.35 MB

     Dynamical RAM for                hpsi:      29.35 MB

     Dynamical RAM for                spsi:      29.35 MB

     Dynamical RAM for      wfcinit/wfcrot:      49.53 MB

     Dynamical RAM for           addusdens:     837.36 MB

     Estimated static dynamical RAM per process >     392.36 MB

     Estimated max dynamical RAM per process >       1.27 GB

     Check: negative core charge=   -0.000010

     Initial potential from superposition of free atoms

     starting charge   63.99436, renormalised to   64.00000

     negative rho (up, down):  4.438E-04 0.000E+00
     Starting wfcs are   64 randomized atomic wfcs

     total cpu time spent up to now is       79.8 secs

     Self-consistent Calculation

     iteration #  1     ecut=    40.00 Ry     beta= 0.70
     Davidson diagonalization with overlap

---- Real-time Memory Report at c_bands before calling an iterative solver
           952 MiB given to the printing process from OS
             0 MiB allocation reported by mallinfo(arena+hblkhd)
          1686 MiB available memory on the node where the printing process lives
------------------
     ethr =  1.00E-02,  avg # of iterations =  2.7

     negative rho (up, down):  7.314E-04 0.000E+00

     total cpu time spent up to now is      251.4 secs

     WARNING: integrated charge=    64.00001376, expected=    64.00000000

     total energy              =    -798.77177244 Ry
     estimated scf accuracy    <       4.88354435 Ry

     iteration #  2     ecut=    40.00 Ry     beta= 0.70
     Davidson diagonalization with overlap

---- Real-time Memory Report at c_bands before calling an iterative solver
          1322 MiB given to the printing process from OS
             0 MiB allocation reported by mallinfo(arena+hblkhd)
          1486 MiB available memory on the node where the printing process lives
------------------
     ethr =  7.63E-03,  avg # of iterations =  2.9

     negative rho (up, down):  7.734E-04 0.000E+00

     total cpu time spent up to now is      447.8 secs

     WARNING: integrated charge=    64.00000872, expected=    64.00000000

     total energy              =    -800.18692393 Ry
     estimated scf accuracy    <       4.04799752 Ry

     iteration #  3     ecut=    40.00 Ry     beta= 0.70
     Davidson diagonalization with overlap

---- Real-time Memory Report at c_bands before calling an iterative solver
          1328 MiB given to the printing process from OS
             0 MiB allocation reported by mallinfo(arena+hblkhd)
          1496 MiB available memory on the node where the printing process lives
------------------
     ethr =  6.32E-03,  avg # of iterations =  2.0
     Minimization algorithm failed to find Fermi energy: reverting to bisection
     Possible cause: smearing is larger than the electronic band-gap.

     negative rho (up, down):  6.050E-04 0.000E+00

     total cpu time spent up to now is      590.5 secs

     total energy              =    -800.77624113 Ry
     estimated scf accuracy    <       0.06074807 Ry

     iteration #  4     ecut=    40.00 Ry     beta= 0.70
     Davidson diagonalization with overlap

---- Real-time Memory Report at c_bands before calling an iterative solver
          1334 MiB given to the printing process from OS
             0 MiB allocation reported by mallinfo(arena+hblkhd)
          1485 MiB available memory on the node where the printing process lives
------------------
     ethr =  9.49E-05,  avg # of iterations =  9.6
     Minimization algorithm failed to find Fermi energy: reverting to bisection
     Possible cause: smearing is larger than the electronic band-gap.

     negative rho (up, down):  6.921E-04 0.000E+00

     total cpu time spent up to now is      811.4 secs

     total energy              =    -800.83362936 Ry
     estimated scf accuracy    <       0.05641040 Ry

     iteration #  5     ecut=    40.00 Ry     beta= 0.70
     Davidson diagonalization with overlap

---- Real-time Memory Report at c_bands before calling an iterative solver
          1341 MiB given to the printing process from OS
             0 MiB allocation reported by mallinfo(arena+hblkhd)
          1470 MiB available memory on the node where the printing process lives
------------------
     ethr =  8.81E-05,  avg # of iterations =  5.5
     Minimization algorithm failed to find Fermi energy: reverting to bisection
     Possible cause: smearing is larger than the electronic band-gap.

     negative rho (up, down):  7.509E-04 0.000E+00

     total cpu time spent up to now is      962.2 secs

     total energy              =    -800.82773388 Ry
     estimated scf accuracy    <       0.02260405 Ry

     iteration #  6     ecut=    40.00 Ry     beta= 0.70
     Davidson diagonalization with overlap

---- Real-time Memory Report at c_bands before calling an iterative solver
          1347 MiB given to the printing process from OS
             0 MiB allocation reported by mallinfo(arena+hblkhd)
          1470 MiB available memory on the node where the printing process lives
------------------
     ethr =  3.53E-05,  avg # of iterations = 10.2
     Minimization algorithm failed to find Fermi energy: reverting to bisection
     Possible cause: smearing is larger than the electronic band-gap.

     negative rho (up, down):  7.775E-04 0.000E+00

     total cpu time spent up to now is     1121.5 secs

     total energy              =    -800.82765953 Ry
     estimated scf accuracy    <       0.01476926 Ry

     iteration #  7     ecut=    40.00 Ry     beta= 0.70
     Davidson diagonalization with overlap

---- Real-time Memory Report at c_bands before calling an iterative solver
          1353 MiB given to the printing process from OS
             0 MiB allocation reported by mallinfo(arena+hblkhd)
          1451 MiB available memory on the node where the printing process lives
------------------
     ethr =  2.31E-05,  avg # of iterations =  5.9
     Minimization algorithm failed to find Fermi energy: reverting to bisection
     Possible cause: smearing is larger than the electronic band-gap.

     negative rho (up, down):  7.946E-04 0.000E+00

     total cpu time spent up to now is     1259.1 secs

     total energy              =    -800.82935620 Ry
     estimated scf accuracy    <       0.00061405 Ry

     iteration #  8     ecut=    40.00 Ry     beta= 0.70
     Davidson diagonalization with overlap

---- Real-time Memory Report at c_bands before calling an iterative solver
          1359 MiB given to the printing process from OS
             0 MiB allocation reported by mallinfo(arena+hblkhd)
          1478 MiB available memory on the node where the printing process lives
------------------
     ethr =  9.59E-07,  avg # of iterations = 11.2
     Minimization algorithm failed to find Fermi energy: reverting to bisection
     Possible cause: smearing is larger than the electronic band-gap.

     negative rho (up, down):  8.007E-04 0.000E+00

     total cpu time spent up to now is     1429.7 secs

     total energy              =    -800.82969653 Ry
     estimated scf accuracy    <       0.00030054 Ry

     iteration #  9     ecut=    40.00 Ry     beta= 0.70
     Davidson diagonalization with overlap

---- Real-time Memory Report at c_bands before calling an iterative solver
          1365 MiB given to the printing process from OS
             0 MiB allocation reported by mallinfo(arena+hblkhd)
          1612 MiB available memory on the node where the printing process lives
------------------
     ethr =  4.70E-07,  avg # of iterations =  1.3
     Minimization algorithm failed to find Fermi energy: reverting to bisection
     Possible cause: smearing is larger than the electronic band-gap.

     negative rho (up, down):  7.976E-04 0.000E+00

     total cpu time spent up to now is     1479.4 secs

     total energy              =    -800.82968308 Ry
     estimated scf accuracy    <       0.00009372 Ry

     iteration # 10     ecut=    40.00 Ry     beta= 0.70
     Davidson diagonalization with overlap

---- Real-time Memory Report at c_bands before calling an iterative solver
          1371 MiB given to the printing process from OS
             0 MiB allocation reported by mallinfo(arena+hblkhd)
          1718 MiB available memory on the node where the printing process lives
------------------
     ethr =  1.46E-07,  avg # of iterations =  2.0
     Minimization algorithm failed to find Fermi energy: reverting to bisection
     Possible cause: smearing is larger than the electronic band-gap.

     negative rho (up, down):  7.980E-04 0.000E+00

     total cpu time spent up to now is     1536.4 secs

     total energy              =    -800.82968788 Ry
     estimated scf accuracy    <       0.00001218 Ry

     iteration # 11     ecut=    40.00 Ry     beta= 0.70
     Davidson diagonalization with overlap

---- Real-time Memory Report at c_bands before calling an iterative solver
          1371 MiB given to the printing process from OS
             0 MiB allocation reported by mallinfo(arena+hblkhd)
          1720 MiB available memory on the node where the printing process lives
------------------
     ethr =  1.90E-08,  avg # of iterations =  4.1
     Minimization algorithm failed to find Fermi energy: reverting to bisection
     Possible cause: smearing is larger than the electronic band-gap.

     negative rho (up, down):  8.006E-04 0.000E+00

     total cpu time spent up to now is     1609.6 secs

     End of self-consistent calculation

          k = 0.0000 0.0000 0.0000 ( 25259 PWs)   bands (ev):

   -16.3440 -15.5231 -13.2887 -13.2878 -13.0935 -12.8407 -12.8406 -12.7294
   -11.0599 -10.6497 -10.6494 -10.1004  -9.8146  -9.8146  -6.1089  -5.5368
    -5.2551  -5.2548  -5.1420  -5.1419  -5.0510  -4.9089  -3.8646  -3.4807
    -3.3566  -3.0644  -3.0640  -2.8936  -2.8759  -2.7569  -2.7565  -2.5970
    -0.0995   0.1791   0.1791   0.2500   0.4808   0.6237

     occupation numbers 
     1.0000   1.0000   1.0000   1.0000   1.0000   1.0000   1.0000   1.0000
     1.0000   1.0000   1.0000   1.0000   1.0000   1.0000   1.0000   1.0000
     1.0000   1.0000   1.0000   1.0000   1.0000   1.0000   1.0045   1.0279
     1.0427   1.0792   1.0792   1.0800   1.0782   1.0531   1.0530   0.9783
     0.0000   0.0000   0.0000   0.0000   0.0000   0.0000

          k = 0.0000 0.1925 0.0000 ( 25283 PWs)   bands (ev):

   -16.2293 -15.4155 -13.6717 -13.3625 -13.3618 -13.1473 -12.8900 -12.8900
   -10.4003 -10.4001 -10.2904  -9.6025  -9.6025  -9.5230  -5.9873  -5.7085
    -5.7081  -5.5420  -5.5420  -5.4223  -4.9448  -4.8295  -4.3504  -4.1119
    -3.4988  -3.3899  -3.1196  -3.1193  -3.1023  -3.0098  -2.7929  -2.7926
     0.3668   0.3669   0.5150   0.7130   0.7782   0.7783

     occupation numbers 
     1.0000   1.0000   1.0000   1.0000   1.0000   1.0000   1.0000   1.0000
     1.0000   1.0000   1.0000   1.0000   1.0000   1.0000   1.0000   1.0000
     1.0000   1.0000   1.0000   1.0000   1.0000   1.0000   1.0002   1.0010
     1.0261   1.0384   1.0739   1.0739   1.0757   1.0825   1.0632   1.0631
     0.0000   0.0000   0.0000   0.0000   0.0000   0.0000

          k = 0.0000 0.3849 0.0000 ( 25329 PWs)   bands (ev):

   -15.8873 -15.0964 -14.5619 -13.8943 -13.4901 -13.4894 -12.9795 -12.9794
    -9.8153  -9.8151  -9.0842  -9.0842  -8.8394  -8.3117  -6.6250  -6.6246
    -6.3675  -6.3675  -5.6331  -5.5339  -5.4957  -5.0784  -4.6374  -4.5992
    -4.2572  -3.8466  -3.7965  -3.5993  -3.2187  -3.2184  -2.8624  -2.8621
     0.7859   0.7859   1.1027   1.1027   1.1868   1.6262

     occupation numbers 
     1.0000   1.0000   1.0000   1.0000   1.0000   1.0000   1.0000   1.0000
     1.0000   1.0000   1.0000   1.0000   1.0000   1.0000   1.0000   1.0000
     1.0000   1.0000   1.0000   1.0000   1.0000   1.0000   1.0000   1.0000
     1.0003   1.0050   1.0066   1.0172   1.0615   1.0615   1.0765   1.0764
     0.0000   0.0000   0.0000   0.0000   0.0000   0.0000

          k = 0.0000-0.5774 0.0000 ( 25316 PWs)   bands (ev):

   -15.3252 -15.3245 -14.5783 -14.5783 -13.5463 -13.5456 -13.0205 -13.0204
    -9.4167  -9.4165  -8.7121  -8.7121  -7.1942  -7.1938  -7.1638  -7.1634
    -6.9048  -6.9047  -6.8698  -6.8698  -5.0371  -5.0368  -4.5267  -4.5264
    -4.2520  -4.2519  -4.1614  -4.1604  -3.2638  -3.2634  -2.8957  -2.8953
     1.0341   1.0341   1.2744   1.2745   1.6199   1.6200

     occupation numbers 
     1.0000   1.0000   1.0000   1.0000   1.0000   1.0000   1.0000   1.0000
     1.0000   1.0000   1.0000   1.0000   1.0000   1.0000   1.0000   1.0000
     1.0000   1.0000   1.0000   1.0000   1.0000   1.0000   1.0000   1.0000
     1.0004   1.0004   1.0007   1.0007   1.0553   1.0553   1.0802   1.0802
     0.0000   0.0000   0.0000   0.0000   0.0000   0.0000

          k = 0.1667 0.2887 0.0000 ( 25322 PWs)   bands (ev):

   -16.0023 -15.2033 -14.1134 -14.0461 -13.4993 -13.4498 -13.0016 -12.6177
   -10.5001  -9.6035  -9.5809  -9.2575  -8.9274  -8.6694  -6.7213  -6.4525
    -5.7489  -5.5150  -5.3884  -5.2572  -5.2016  -5.1262  -5.0459  -4.9853
    -3.8796  -3.8280  -3.7444  -3.6063  -3.4084  -3.3238  -2.7672  -2.4964
     0.2423   0.5819   1.0671   1.1104   1.3271   1.4031

     occupation numbers 
     1.0000   1.0000   1.0000   1.0000   1.0000   1.0000   1.0000   1.0000
     1.0000   1.0000   1.0000   1.0000   1.0000   1.0000   1.0000   1.0000
     1.0000   1.0000   1.0000   1.0000   1.0000   1.0000   1.0000   1.0000
     1.0042   1.0056   1.0087   1.0167   1.0361   1.0471   1.0562   0.9057
     0.0000   0.0000   0.0000   0.0000   0.0000   0.0000

          k = 0.1667 0.4811 0.0000 ( 25336 PWs)   bands (ev):

   -15.5501 -14.8858 -14.7845 -14.2975 -14.1810 -13.6558 -12.8454 -12.4942
   -10.2530  -9.3083  -8.5420  -8.0537  -8.0375  -7.6323  -7.5949  -7.2774
    -6.4611  -6.2776  -6.2330  -6.0274  -5.2716  -4.8157  -4.7797  -4.7478
    -4.5853  -4.3231  -4.2119  -4.1026  -4.0048  -3.5671  -2.5957  -2.3432
     0.3533   0.5851   1.5934   1.8304   2.0133   2.0542

     occupation numbers 
     1.0000   1.0000   1.0000   1.0000   1.0000   1.0000   1.0000   1.0000
     1.0000   1.0000   1.0000   1.0000   1.0000   1.0000   1.0000   1.0000
     1.0000   1.0000   1.0000   1.0000   1.0000   1.0000   1.0000   1.0000
     1.0000   1.0002   1.0005   1.0010   1.0020   1.0198   0.9775   0.7629
     0.0000   0.0000   0.0000   0.0000   0.0000   0.0000

          k = 0.3333 0.5774 0.0000 ( 25278 PWs)   bands (ev):

   -15.0199 -15.0012 -15.0005 -14.2990 -14.2835 -14.2835 -12.4618 -12.2566
   -10.5952  -9.4584  -7.9080  -7.5926  -7.5630  -7.5628  -7.2120  -7.2014
    -7.2013  -6.9186  -5.5285  -5.4279  -5.1756  -5.1750  -5.1179  -5.1178
    -4.7339  -4.7056  -4.7053  -4.2442  -4.2157  -4.2154  -2.2064  -2.1069
     0.1351   0.2104   2.2023   2.2024   2.2068   2.5793

     occupation numbers 
     1.0000   1.0000   1.0000   1.0000   1.0000   1.0000   1.0000   1.0000
     1.0000   1.0000   1.0000   1.0000   1.0000   1.0000   1.0000   1.0000
     1.0000   1.0000   1.0000   1.0000   1.0000   1.0000   1.0000   1.0000
     1.0000   1.0000   1.0000   1.0004   1.0005   1.0005   0.6151   0.5054
     0.0000   0.0000   0.0000   0.0000   0.0000   0.0000

          k =-0.1667 0.0962 0.0000 ( 25283 PWs)   bands (ev):

   -16.2305 -15.4166 -13.7726 -13.3514 -13.2168 -13.2034 -12.8836 -12.7941
   -10.7854 -10.4296  -9.9694  -9.8823  -9.6227  -9.2744  -5.9894  -5.6864
    -5.5241  -5.4875  -5.4243  -5.3077  -5.1555  -5.0667  -4.1601  -3.8827
    -3.7081  -3.5046  -3.3489  -3.1226  -3.1081  -2.9582  -2.7825  -2.6475
     0.1002   0.3439   0.4282   0.7206   0.7433   0.7525

     occupation numbers 
     1.0000   1.0000   1.0000   1.0000   1.0000   1.0000   1.0000   1.0000
     1.0000   1.0000   1.0000   1.0000   1.0000   1.0000   1.0000   1.0000
     1.0000   1.0000   1.0000   1.0000   1.0000   1.0000   1.0007   1.0041
     1.0104   1.0255   1.0437   1.0736   1.0751   1.0833   1.0605   1.0074
     0.0000   0.0000   0.0000   0.0000   0.0000   0.0000

          k =-0.3333 0.1925 0.0000 ( 25329 PWs)   bands (ev):

   -15.8926 -15.1011 -14.6008 -13.9251 -13.4559 -13.3858 -12.9579 -12.9123
   -10.1780  -9.9454  -9.3648  -9.1809  -8.5671  -8.0876  -6.5216  -6.3633
    -6.2797  -6.1180  -5.6372  -5.2617  -5.2429  -5.0833  -4.8694  -4.8481
    -4.3105  -4.1329  -3.9014  -3.8508  -3.1808  -3.1050  -2.8262  -2.7530
     0.5464   0.6939   0.8092   1.0032   1.1741   1.4434

     occupation numbers 
     1.0000   1.0000   1.0000   1.0000   1.0000   1.0000   1.0000   1.0000
     1.0000   1.0000   1.0000   1.0000   1.0000   1.0000   1.0000   1.0000
     1.0000   1.0000   1.0000   1.0000   1.0000   1.0000   1.0000   1.0000
     1.0002   1.0008   1.0037   1.0049   1.0665   1.0755   1.0705   1.0519
     0.0000   0.0000   0.0000   0.0000   0.0000   0.0000

          k = 0.5000-0.2887 0.0000 ( 25316 PWs)   bands (ev):

   -15.3401 -15.3400 -14.5913 -14.5912 -13.4825 -13.4825 -12.9788 -12.9787
    -9.7258  -9.7258  -8.9605  -8.9605  -6.9236  -6.9235  -6.9110  -6.9110
    -6.6746  -6.6746  -6.6398  -6.6398  -5.0608  -5.0608  -4.5508  -4.5508
    -4.5215  -4.5215  -4.4255  -4.4255  -3.1919  -3.1918  -2.8253  -2.8252
     0.8483   0.8483   1.0709   1.0709   1.5216   1.5216

     occupation numbers 
     1.0000   1.0000   1.0000   1.0000   1.0000   1.0000   1.0000   1.0000
     1.0000   1.0000   1.0000   1.0000   1.0000   1.0000   1.0000   1.0000
     1.0000   1.0000   1.0000   1.0000   1.0000   1.0000   1.0000   1.0000
     1.0000   1.0000   1.0001   1.0001   1.0651   1.0651   1.0704   1.0704
     0.0000   0.0000   0.0000   0.0000   0.0000   0.0000

          k = 0.3333 0.0000 0.0000 ( 25322 PWs)   bands (ev):

   -16.0059 -15.2066 -14.0996 -14.0988 -13.4892 -13.4891 -12.8289 -12.5274
   -10.8826  -9.8693  -9.3339  -9.3335  -8.7260  -8.7260  -6.5138  -6.2469
    -5.7550  -5.4433  -5.4430  -5.3292  -5.3292  -5.2043  -4.7054  -4.5802
    -4.2564  -4.0413  -3.8103  -3.8099  -3.3907  -3.3904  -2.6032  -2.3686
     0.0108   0.2553   1.0812   1.2706   1.2711   1.5965

     occupation numbers 
     1.0000   1.0000   1.0000   1.0000   1.0000   1.0000   1.0000   1.0000
     1.0000   1.0000   1.0000   1.0000   1.0000   1.0000   1.0000   1.0000
     1.0000   1.0000   1.0000   1.0000   1.0000   1.0000   1.0000   1.0000
     1.0003   1.0016   1.0061   1.0061   1.0383   1.0383   0.9822   0.7887
     0.0000   0.0000   0.0000   0.0000   0.0000   0.0000

          k =-0.3333 0.3849 0.0000 ( 25336 PWs)   bands (ev):

   -15.5549 -14.9139 -14.7887 -14.2525 -14.2038 -13.6221 -12.7964 -12.4689
   -10.3922  -9.4118  -8.8994  -8.3263  -7.7237  -7.5025  -7.3611  -7.1916
    -6.3286  -6.1610  -5.9094  -5.7318  -5.2793  -5.1306  -5.0844  -4.7554
    -4.6262  -4.4565  -4.3420  -4.1440  -3.9461  -3.5075  -2.5471  -2.3055
     0.2726   0.4845   1.5599   1.6257   1.8392   1.8919

     occupation numbers 
     1.0000   1.0000   1.0000   1.0000   1.0000   1.0000   1.0000   1.0000
     1.0000   1.0000   1.0000   1.0000   1.0000   1.0000   1.0000   1.0000
     1.0000   1.0000   1.0000   1.0000   1.0000   1.0000   1.0000   1.0000
     1.0000   1.0001   1.0002   1.0008   1.0028   1.0252   0.9447   0.7233
     0.0000   0.0000   0.0000   0.0000   0.0000   0.0000

          k = 0.5000 0.0962 0.0000 ( 25336 PWs)   bands (ev):

   -15.5614 -14.9036 -14.7943 -14.2690 -14.1955 -13.6347 -12.7242 -12.4326
   -10.5724  -9.5454  -8.7840  -8.2276  -7.8606  -7.4671  -7.3951  -7.0845
    -6.0847  -6.0054  -5.9641  -5.8318  -5.2897  -4.9882  -4.9627  -4.7664
    -4.6806  -4.6112  -4.6047  -4.1288  -3.9673  -3.5293  -2.4775  -2.2538
     0.1826   0.3377   1.5802   1.6863   1.8776   1.9158

     occupation numbers 
     1.0000   1.0000   1.0000   1.0000   1.0000   1.0000   1.0000   1.0000
     1.0000   1.0000   1.0000   1.0000   1.0000   1.0000   1.0000   1.0000
     1.0000   1.0000   1.0000   1.0000   1.0000   1.0000   1.0000   1.0000
     1.0000   1.0000   1.0000   1.0009   1.0025   1.0231   0.8900   0.6674
     0.0000   0.0000   0.0000   0.0000   0.0000   0.0000

     the Fermi energy is    -2.0071 ev

!    total energy              =    -800.82969190 Ry
     estimated scf accuracy    <       0.00000067 Ry
     smearing contrib. (-TS)   =       0.03956984 Ry
     internal energy E=F+TS    =    -800.86926174 Ry

     The total energy is F=E-TS. E is the sum of the following terms:
     one-electron contribution =   -1572.39016621 Ry
     hartree contribution      =     800.49025662 Ry
     xc contribution           =     -87.79343517 Ry
     ewald contribution        =     670.00022156 Ry
     DFT-D3 Dispersion         =      -0.07606521 Ry
     one-center paw contrib.   =    -611.10007333 Ry
      -> PAW hartree energy AE =      21.05238702 Ry
      -> PAW hartree energy PS =     -21.03366652 Ry
      -> PAW xc energy AE      =    -636.84546633 Ry
      -> PAW xc energy PS      =      25.72667250 Ry
      -> total E_H with PAW    =     800.50897712 Ry
      -> total E_XC with PAW   =    -698.91222900 Ry

     convergence has been achieved in  11 iterations

     Writing output data file ./work/sic_gec_23.save/

     init_run     :     74.10s CPU     79.56s WALL (       1 calls)
     electrons    :   1438.83s CPU   1529.85s WALL (       1 calls)

     Called by init_run:
     wfcinit      :     67.47s CPU     71.41s WALL (       1 calls)
     wfcinit:atom :      0.25s CPU      0.38s WALL (      13 calls)
     wfcinit:wfcr :     65.62s CPU     69.29s WALL (      13 calls)
     potinit      :      1.72s CPU      2.01s WALL (       1 calls)
     hinit0       :      1.62s CPU      1.64s WALL (       1 calls)

     Called by electrons:
     c_bands      :   1245.44s CPU   1313.98s WALL (      11 calls)
     sum_band     :    160.86s CPU    176.68s WALL (      11 calls)
     v_of_rho     :      6.65s CPU      7.39s WALL (      12 calls)
     v_h          :      0.42s CPU      0.45s WALL (      12 calls)
     v_xc         :      6.23s CPU      6.94s WALL (      12 calls)
     newd         :     25.90s CPU     33.09s WALL (      12 calls)
     PAW_pot      :      1.98s CPU      2.05s WALL (      12 calls)
     mix_rho      :      1.39s CPU      1.47s WALL (      11 calls)
     energy_dftd3 :      0.10s CPU      0.10s WALL (       1 calls)

     Called by c_bands:
     init_us_2    :      8.19s CPU      8.68s WALL (     299 calls)
     cegterg      :   1225.19s CPU   1292.65s WALL (     143 calls)

     Called by sum_band:
     sum_band:wei :      0.02s CPU      0.03s WALL (      11 calls)
     sum_band:loo :    131.62s CPU    138.28s WALL (      11 calls)
     sum_band:buf :      0.56s CPU      0.60s WALL (     143 calls)
     sum_band:ini :      3.77s CPU      3.99s WALL (     143 calls)
     sum_band:cal :     60.51s CPU     62.70s WALL (     143 calls)
     sum_band:bec :      0.03s CPU      0.03s WALL (     143 calls)
     addusdens    :     28.45s CPU     37.55s WALL (      11 calls)
     addusd:skk   :      0.27s CPU      0.31s WALL (      33 calls)
     addusd:dgemm :     12.74s CPU     19.22s WALL (      33 calls)
     addusd:qvan2 :     14.12s CPU     15.52s WALL (      33 calls)

     Called by *egterg:
     cdiaghg      :      2.12s CPU      2.23s WALL (     888 calls)
     cegterg:over :    102.52s CPU    107.28s WALL (     745 calls)
     cegterg:upda :     52.62s CPU     55.48s WALL (     745 calls)
     cegterg:last :    134.40s CPU    141.62s WALL (     339 calls)
     h_psi        :    774.27s CPU    816.74s WALL (     901 calls)
     s_psi        :    180.47s CPU    190.58s WALL (     901 calls)
     g_psi        :      1.55s CPU      1.65s WALL (     745 calls)

     Called by h_psi:
     h_psi:calbec :    191.39s CPU    198.78s WALL (     901 calls)
     vloc_psi     :    404.24s CPU    429.72s WALL (     901 calls)
     add_vuspsi   :    177.02s CPU    185.38s WALL (     901 calls)

     General routines
     calbec       :    251.89s CPU    261.47s WALL (    1044 calls)
     fft          :      4.20s CPU      4.45s WALL (     154 calls)
     ffts         :      0.34s CPU      0.35s WALL (      23 calls)
     fftw         :    391.35s CPU    416.27s WALL (   37354 calls)
     interpolate  :      0.57s CPU      0.58s WALL (      12 calls)


     PAW routines
     PAW_pot      :      1.98s CPU      2.05s WALL (      12 calls)
     PAW_symme    :      0.00s CPU      0.00s WALL (      23 calls)

     PWSCF        :  25m13.32s CPU  26m50.65s WALL


   This run was terminated on:  18:19:48   8Aug2021            

=------------------------------------------------------------------------------=
   JOB DONE.
=------------------------------------------------------------------------------=
