
     Program POST-PROC v.7.0 starts on 14Oct2022 at  4:59:53 

     This program is part of the open-source Quantum ESPRESSO suite
     for quantum simulation of materials; please cite
         "P. Giannozzi et al., J. Phys.:Condens. Matter 21 395502 (2009);
         "P. Giannozzi et al., J. Phys.:Condens. Matter 29 465901 (2017);
         "P. Giannozzi et al., J. Chem. Phys. 152 154105 (2020);
          URL http://www.quantum-espresso.org", 
     in publications or presentations arising from this work. More details at
     http://www.quantum-espresso.org/quote

     Serial multi-threaded version, running on    4 processor cores
     6280 MiB available memory on the printing compute node when the environment starts


     Reading xml data from directory:

     ./work/zno_sic_1_pot.save/
     file Zn.pbe-dnl-rrkjus_psl.1.0.0.UPF: wavefunction(s)  3D renormalized

     IMPORTANT: XC functional enforced from input :
     Exchange-correlation= PBE
                           (   1   4   3   4   0   0   0)
     Any further DFT definition will be discarded
     Please, verify this is what you really want


     G-vector sticks info
     --------------------
     sticks:   dense  smooth     PW     G-vecs:    dense   smooth      PW
     Sum         517     313     97                59295    27683    4803

     Using Slab Decomposition


     Check: negative core charge=   -0.000012

     negative rho (up, down):  1.704E-03 0.000E+00

     Calling punch_plot, plot_num =  11
     Writing data to file  zno_sic_1.pot
     Message from routine chdens:
     output format not set, exiting

     POST-PROC    :      3.02s CPU      1.77s WALL


   This run was terminated on:   4:59:55  14Oct2022            

=------------------------------------------------------------------------------=
   JOB DONE.
=------------------------------------------------------------------------------=
