
     Program PWSCF v.7.0 starts on 14Oct2022 at  4:49:52 

     This program is part of the open-source Quantum ESPRESSO suite
     for quantum simulation of materials; please cite
         "P. Giannozzi et al., J. Phys.:Condens. Matter 21 395502 (2009);
         "P. Giannozzi et al., J. Phys.:Condens. Matter 29 465901 (2017);
         "P. Giannozzi et al., J. Chem. Phys. 152 154105 (2020);
          URL http://www.quantum-espresso.org", 
     in publications or presentations arising from this work. More details at
     http://www.quantum-espresso.org/quote

     Serial multi-threaded version, running on    4 processor cores
     6075 MiB available memory on the printing compute node when the environment starts

     Waiting for input...
     Reading input from standard input

     Current dimensions of program PWSCF are:
     Max number of different atomic species (ntypx) = 10
     Max number of k-points (npk) =  40000
     Max angular momentum in pseudopotentials (lmaxx) =  4
     file Zn.pbe-dnl-rrkjus_psl.1.0.0.UPF: wavefunction(s)  3D renormalized

     IMPORTANT: XC functional enforced from input :
     Exchange-correlation= PBE
                           (   1   4   3   4   0   0   0)
     Any further DFT definition will be discarded
     Please, verify this is what you really want


     --------------------------------------------
     DFT-D3 Dispersion Correction (3-body terms):
     --------------------------------------------
       Reference C6 values for interpolation: 

         atom   Coordination number   C6
         C          0.000            98.23
         C          0.987            86.49
         C          1.998            58.72
         C          2.999            51.56
         C          3.984            36.41
         O          0.000            31.01
         O          0.993            25.63
         O          1.989            20.74
         Si         0.000           635.71
         Si         0.951           540.53
         Si         1.944           466.25
         Si         2.941           443.01
         Si         3.868           299.55
         Zn         0.000           681.04
         Zn         1.942           306.91

       Values used:

         atom   Coordination number  R0_AB[au]  C6      C8
         Zn         3.988            3.053    306.91  23930.67
         O          2.929            2.345     20.74    418.58
         Si         3.636            3.583    318.93  22812.04
         C          2.999            2.750     51.35   1485.05

         Molecular C6 ( Ry / a.u.^6 ) =      2177.77


     G-vector sticks info
     --------------------
     sticks:   dense  smooth     PW     G-vecs:    dense   smooth      PW
     Sum         517     313     97                59295    27683    4803

     Using Slab Decomposition



     bravais-lattice index     =            4
     lattice parameter (alat)  =       6.1643  a.u.
     unit-cell volume          =    1243.7272 (a.u.)^3
     number of atoms/cell      =            4
     number of atomic types    =            4
     number of electrons       =        26.00
     number of Kohn-Sham states=           17
     kinetic-energy cutoff     =      30.0000  Ry
     charge density cutoff     =     200.0000  Ry
     scf convergence threshold =      1.0E-06
     mixing beta               =       0.7000
     number of iterations used =            8  plain     mixing
     Exchange-correlation= PBE
                           (   1   4   3   4   0   0   0)

     celldm(1)=   6.164287  celldm(2)=   0.000000  celldm(3)=   6.131208
     celldm(4)=   0.000000  celldm(5)=   0.000000  celldm(6)=   0.000000

     crystal axes: (cart. coord. in units of alat)
               a(1) = (   1.000000   0.000000   0.000000 )  
               a(2) = (  -0.500000   0.866025   0.000000 )  
               a(3) = (   0.000000   0.000000   6.131208 )  

     reciprocal axes: (cart. coord. in units 2 pi/alat)
               b(1) = (  1.000000  0.577350 -0.000000 )  
               b(2) = (  0.000000  1.154701  0.000000 )  
               b(3) = (  0.000000 -0.000000  0.163100 )  


     PseudoPot. # 1 for Zn read from file:
     ./pseudo/Zn.pbe-dnl-rrkjus_psl.1.0.0.UPF
     MD5 check sum: 7f56cabf9682ed8c977c2f7d0c5985c5
     Pseudo is Ultrasoft + core correction, Zval = 12.0
     Generated using &quot;atomic&quot; code by A. Dal Corso  v.6.2.2
     Using radial grid of 1201 points,  6 beta functions with: 
                l(1) =   0
                l(2) =   0
                l(3) =   1
                l(4) =   1
                l(5) =   2
                l(6) =   2
     Q(r) pseudized with 0 coefficients 


     PseudoPot. # 2 for O  read from file:
     ./pseudo/O.pbe-n-rrkjus_psl.1.0.0.UPF
     MD5 check sum: 91400c9766925bcf19f520983a725ff0
     Pseudo is Ultrasoft + core correction, Zval =  6.0
     Generated using &quot;atomic&quot; code by A. Dal Corso  v.6.3MaX
     Using radial grid of 1095 points,  4 beta functions with: 
                l(1) =   0
                l(2) =   0
                l(3) =   1
                l(4) =   1
     Q(r) pseudized with 0 coefficients 


     PseudoPot. # 3 for Si read from file:
     ./pseudo/Si.pbe-nl-rrkjus_psl.1.0.0.UPF
     MD5 check sum: 78279d3766ecb5dbdc0623f3e93c9a23
     Pseudo is Ultrasoft + core correction, Zval =  4.0
     Generated using &quot;atomic&quot; code by A. Dal Corso  v.6.3
     Using radial grid of 1141 points,  4 beta functions with: 
                l(1) =   0
                l(2) =   0
                l(3) =   1
                l(4) =   1
     Q(r) pseudized with 0 coefficients 


     PseudoPot. # 4 for C  read from file:
     ./pseudo/C.pbe-n-rrkjus_psl.1.0.0.UPF
     MD5 check sum: 1fdd950c42eb37d8afe3dd2f8d12311e
     Pseudo is Ultrasoft + core correction, Zval =  4.0
     Generated using &quot;atomic&quot; code by A. Dal Corso  v.6.3MaX
     Using radial grid of 1073 points,  4 beta functions with: 
                l(1) =   0
                l(2) =   0
                l(3) =   1
                l(4) =   1
     Q(r) pseudized with 0 coefficients 


     atomic species   valence    mass     pseudopotential
        Zn            12.00    65.40900     Zn( 1.00)
        O              6.00    15.99940     O ( 1.00)
        Si             4.00    28.08550     Si( 1.00)
        C              4.00    12.01070     C ( 1.00)

      6 Sym. Ops. (no inversion) found


                                    s                        frac. trans.

      isym =  1     identity                                     

 cryst.   s( 1) = (     1          0          0      )
                  (     0          1          0      )
                  (     0          0          1      )

 cart.    s( 1) = (  1.0000000  0.0000000  0.0000000 )
                  (  0.0000000  1.0000000  0.0000000 )
                  (  0.0000000  0.0000000  1.0000000 )


      isym =  2     120 deg rotation - cryst. axis [0,0,1]       

 cryst.   s( 2) = (     0          1          0      )
                  (    -1         -1          0      )
                  (     0          0          1      )

 cart.    s( 2) = ( -0.5000000 -0.8660254  0.0000000 )
                  (  0.8660254 -0.5000000  0.0000000 )
                  (  0.0000000  0.0000000  1.0000000 )


      isym =  3     120 deg rotation - cryst. axis [0,0,-1]      

 cryst.   s( 3) = (    -1         -1          0      )
                  (     1          0          0      )
                  (     0          0          1      )

 cart.    s( 3) = ( -0.5000000  0.8660254  0.0000000 )
                  ( -0.8660254 -0.5000000  0.0000000 )
                  (  0.0000000  0.0000000  1.0000000 )


      isym =  4     inv. 180 deg rotation - cart. axis [1,0,0]   

 cryst.   s( 4) = (    -1          0          0      )
                  (     1          1          0      )
                  (     0          0          1      )

 cart.    s( 4) = ( -1.0000000  0.0000000  0.0000000 )
                  (  0.0000000  1.0000000  0.0000000 )
                  (  0.0000000  0.0000000  1.0000000 )


      isym =  5     inv. 180 deg rotation - cryst. axis [0,1,0]  

 cryst.   s( 5) = (     1          1          0      )
                  (     0         -1          0      )
                  (     0          0          1      )

 cart.    s( 5) = (  0.5000000  0.8660254  0.0000000 )
                  (  0.8660254 -0.5000000  0.0000000 )
                  (  0.0000000  0.0000000  1.0000000 )


      isym =  6     inv. 180 deg rotation - cryst. axis [1,1,0]  

 cryst.   s( 6) = (     0         -1          0      )
                  (    -1          0          0      )
                  (     0          0          1      )

 cart.    s( 6) = (  0.5000000 -0.8660254  0.0000000 )
                  ( -0.8660254 -0.5000000  0.0000000 )
                  (  0.0000000  0.0000000  1.0000000 )


     point group C_3v (3m)  
     there are  3 classes
     the character table:

       E     2C3   3s_v 
A_1    1.00  1.00  1.00
A_2    1.00  1.00 -1.00
E      2.00 -1.00  0.00

     the symmetry operations in each class and the name of the first element:

     E        1
          identity                                               
     2C3      2    3
          120 deg rotation - cryst. axis [0,0,1]                 
     3s_v     4    5    6
          inv. 180 deg rotation - cart. axis [1,0,0]             

   Cartesian axes

     site n.     atom                  positions (alat units)
         1           Zn  tau(   1) = (   0.0000000   0.0000000   2.5137952  )
         2           O   tau(   2) = (   0.0000000   0.5773503   2.5137952  )
         3           Si  tau(   3) = (   0.0000000   0.0000000   1.5328020  )
         4           C   tau(   4) = (   0.0000000   0.5773503   1.5328020  )

   Crystallographic axes

     site n.     atom                  positions (cryst. coord.)
         1           Zn  tau(   1) = (  0.0000000  0.0000000  0.4100000  )
         2           O   tau(   2) = (  0.3333333  0.6666667  0.4100000  )
         3           Si  tau(   3) = (  0.0000000  0.0000000  0.2500000  )
         4           C   tau(   4) = (  0.3333333  0.6666667  0.2500000  )

     number of k points=     7  Marzari-Vanderbilt smearing, width (Ry)=  0.0050
                       cart. coord. in units 2pi/alat
        k(    1) = (   0.0000000   0.0000000   0.0000000), wk =   0.0555556
        k(    2) = (   0.0000000   0.1924501   0.0000000), wk =   0.3333333
        k(    3) = (   0.0000000   0.3849002   0.0000000), wk =   0.3333333
        k(    4) = (   0.0000000  -0.5773503   0.0000000), wk =   0.1666667
        k(    5) = (   0.1666667   0.2886751   0.0000000), wk =   0.3333333
        k(    6) = (   0.1666667   0.4811252   0.0000000), wk =   0.6666667
        k(    7) = (   0.3333333   0.5773503   0.0000000), wk =   0.1111111

                       cryst. coord.
        k(    1) = (   0.0000000   0.0000000   0.0000000), wk =   0.0555556
        k(    2) = (   0.0000000   0.1666667   0.0000000), wk =   0.3333333
        k(    3) = (   0.0000000   0.3333333   0.0000000), wk =   0.3333333
        k(    4) = (   0.0000000  -0.5000000   0.0000000), wk =   0.1666667
        k(    5) = (   0.1666667   0.1666667   0.0000000), wk =   0.3333333
        k(    6) = (   0.1666667   0.3333333   0.0000000), wk =   0.6666667
        k(    7) = (   0.3333333   0.3333333   0.0000000), wk =   0.1111111

     Dense  grid:    59295 G-vectors     FFT dimensions: (  27,  27, 180)

     Smooth grid:    27683 G-vectors     FFT dimensions: (  24,  24, 135)

     Dynamical RAM for                 wfc:       0.90 MB

     Dynamical RAM for     wfc (w. buffer):       7.16 MB

     Dynamical RAM for           str. fact:       3.62 MB

     Dynamical RAM for           local pot:       0.00 MB

     Dynamical RAM for          nlocal pot:       2.21 MB

     Dynamical RAM for                qrad:       4.54 MB

     Dynamical RAM for          rho,v,vnew:       5.72 MB

     Dynamical RAM for               rhoin:       1.91 MB

     Dynamical RAM for            rho*nmix:      14.48 MB

     Dynamical RAM for           G-vectors:       3.60 MB

     Dynamical RAM for          h,s,v(r/c):       0.05 MB

     Dynamical RAM for          <psi|beta>:       0.01 MB

     Dynamical RAM for                 psi:       1.79 MB

     Dynamical RAM for                hpsi:       1.79 MB

     Dynamical RAM for                spsi:       1.79 MB

     Dynamical RAM for      wfcinit/wfcrot:       2.22 MB

     Dynamical RAM for           addusdens:     169.19 MB

     Estimated static dynamical RAM per process >      38.29 MB

     Estimated max dynamical RAM per process >     221.96 MB

     Check: negative core charge=   -0.000012

     Initial potential from superposition of free atoms

     starting charge      25.9957, renormalised to      26.0000

     negative rho (up, down):  1.445E-03 0.000E+00
     Starting wfcs are   21 randomized atomic wfcs

     total cpu time spent up to now is        2.8 secs

     Self-consistent Calculation

     iteration #  1     ecut=    30.00 Ry     beta= 0.70
     Davidson diagonalization with overlap

---- Real-time Memory Report at c_bands before calling an iterative solver
           223 MiB given to the printing process from OS
             0 MiB allocation reported by mallinfo(arena+hblkhd)
          6038 MiB available memory on the node where the printing process lives
------------------
     ethr =  1.00E-02,  avg # of iterations =  3.4

     negative rho (up, down):  1.605E-03 0.000E+00

     total cpu time spent up to now is        4.9 secs

     total energy              =    -202.76667135 Ry
     estimated scf accuracy    <       0.93146594 Ry

     iteration #  2     ecut=    30.00 Ry     beta= 0.70
     Davidson diagonalization with overlap

---- Real-time Memory Report at c_bands before calling an iterative solver
           240 MiB given to the printing process from OS
             0 MiB allocation reported by mallinfo(arena+hblkhd)
          6001 MiB available memory on the node where the printing process lives
------------------
     ethr =  3.58E-03,  avg # of iterations =  3.3

     negative rho (up, down):  2.186E-03 0.000E+00

     total cpu time spent up to now is        6.5 secs

     total energy              =    -202.91481988 Ry
     estimated scf accuracy    <       1.34468289 Ry

     iteration #  3     ecut=    30.00 Ry     beta= 0.70
     Davidson diagonalization with overlap

---- Real-time Memory Report at c_bands before calling an iterative solver
           241 MiB given to the printing process from OS
             0 MiB allocation reported by mallinfo(arena+hblkhd)
          6031 MiB available memory on the node where the printing process lives
------------------
     ethr =  3.58E-03,  avg # of iterations =  2.0

     negative rho (up, down):  1.497E-03 0.000E+00

     total cpu time spent up to now is        8.2 secs

     WARNING: integrated charge=    26.00075665, expected=    26.00000000

     total energy              =    -203.16509936 Ry
     estimated scf accuracy    <       0.04569773 Ry

     iteration #  4     ecut=    30.00 Ry     beta= 0.70
     Davidson diagonalization with overlap

---- Real-time Memory Report at c_bands before calling an iterative solver
           242 MiB given to the printing process from OS
             0 MiB allocation reported by mallinfo(arena+hblkhd)
          6014 MiB available memory on the node where the printing process lives
------------------
     ethr =  1.76E-04,  avg # of iterations =  5.4

     negative rho (up, down):  1.556E-03 0.000E+00

     total cpu time spent up to now is        9.9 secs

     WARNING: integrated charge=    26.00035346, expected=    26.00000000

     total energy              =    -203.18077774 Ry
     estimated scf accuracy    <       0.01234201 Ry

     iteration #  5     ecut=    30.00 Ry     beta= 0.70
     Davidson diagonalization with overlap

---- Real-time Memory Report at c_bands before calling an iterative solver
           243 MiB given to the printing process from OS
             0 MiB allocation reported by mallinfo(arena+hblkhd)
          6019 MiB available memory on the node where the printing process lives
------------------
     ethr =  4.75E-05,  avg # of iterations =  4.1

     negative rho (up, down):  1.665E-03 0.000E+00

     total cpu time spent up to now is       11.4 secs

     WARNING: integrated charge=    26.00007972, expected=    26.00000000

     total energy              =    -203.18271591 Ry
     estimated scf accuracy    <       0.00328123 Ry

     iteration #  6     ecut=    30.00 Ry     beta= 0.70
     Davidson diagonalization with overlap

---- Real-time Memory Report at c_bands before calling an iterative solver
           243 MiB given to the printing process from OS
             0 MiB allocation reported by mallinfo(arena+hblkhd)
          6018 MiB available memory on the node where the printing process lives
------------------
     ethr =  1.26E-05,  avg # of iterations =  6.7

     negative rho (up, down):  1.689E-03 0.000E+00

     total cpu time spent up to now is       12.9 secs

     WARNING: integrated charge=    26.00008593, expected=    26.00000000

     total energy              =    -203.18318326 Ry
     estimated scf accuracy    <       0.00019374 Ry

     iteration #  7     ecut=    30.00 Ry     beta= 0.70
     Davidson diagonalization with overlap

---- Real-time Memory Report at c_bands before calling an iterative solver
           245 MiB given to the printing process from OS
             0 MiB allocation reported by mallinfo(arena+hblkhd)
          6017 MiB available memory on the node where the printing process lives
------------------
     ethr =  7.45E-07,  avg # of iterations =  4.4

     negative rho (up, down):  1.697E-03 0.000E+00

     total cpu time spent up to now is       14.5 secs

     WARNING: integrated charge=    26.00004846, expected=    26.00000000

     total energy              =    -203.18325385 Ry
     estimated scf accuracy    <       0.00002970 Ry

     iteration #  8     ecut=    30.00 Ry     beta= 0.70
     Davidson diagonalization with overlap

---- Real-time Memory Report at c_bands before calling an iterative solver
           245 MiB given to the printing process from OS
             0 MiB allocation reported by mallinfo(arena+hblkhd)
          6016 MiB available memory on the node where the printing process lives
------------------
     ethr =  1.14E-07,  avg # of iterations =  2.0

     negative rho (up, down):  1.699E-03 0.000E+00

     total cpu time spent up to now is       16.0 secs

     WARNING: integrated charge=    26.00002134, expected=    26.00000000

     total energy              =    -203.18325508 Ry
     estimated scf accuracy    <       0.00000969 Ry

     iteration #  9     ecut=    30.00 Ry     beta= 0.70
     Davidson diagonalization with overlap

---- Real-time Memory Report at c_bands before calling an iterative solver
           246 MiB given to the printing process from OS
             0 MiB allocation reported by mallinfo(arena+hblkhd)
          6015 MiB available memory on the node where the printing process lives
------------------
     ethr =  3.73E-08,  avg # of iterations =  2.3

     negative rho (up, down):  1.704E-03 0.000E+00

     total cpu time spent up to now is       17.3 secs

     End of self-consistent calculation

          k = 0.0000 0.0000 0.0000 (  3509 PWs)   bands (ev):

   -19.7826 -14.9668  -8.3998  -8.3998  -7.1055  -6.9909  -6.9909  -5.6626
    -3.9981  -3.3873  -3.3873  -1.9729  -1.9729  -0.3826   1.2778   2.4527
     2.8859

     occupation numbers 
     1.0000   1.0000   1.0000   1.0000   1.0000   1.0000   1.0000   1.0000
     1.0000   1.0000   1.0000   1.0000   1.0000   0.0000   0.0000   0.0000
     0.0000

          k = 0.0000 0.1925 0.0000 (  3481 PWs)   bands (ev):

   -19.6645 -14.5664  -8.4292  -8.2102  -7.1820  -7.0445  -6.9984  -5.2396
    -5.0858  -3.8246  -3.6660  -3.1117  -2.4137   0.7794   1.9468   2.9166
     3.3130

     occupation numbers 
     1.0000   1.0000   1.0000   1.0000   1.0000   1.0000   1.0000   1.0000
     1.0000   1.0000   1.0000   1.0000   1.0000   0.0000   0.0000   0.0000
     0.0000

          k = 0.0000 0.3849 0.0000 (  3445 PWs)   bands (ev):

   -19.4204 -13.4494  -8.3064  -7.8944  -7.7627  -7.4227  -7.0252  -6.9206
    -4.9928  -4.5139  -3.9679  -3.3351  -2.8063   1.2480   1.7867   2.9998
     3.8561

     occupation numbers 
     1.0000   1.0000   1.0000   1.0000   1.0000   1.0000   1.0000   1.0000
     1.0000   1.0000   1.0000   1.0000   1.0000   0.0000   0.0000   0.0000
     0.0000

          k = 0.0000-0.5774 0.0000 (  3444 PWs)   bands (ev):

   -19.2942 -12.4173  -9.5481  -8.0784  -7.5166  -7.4769  -7.0372  -6.8464
    -5.9169  -4.8010  -3.8509  -3.1613  -2.1632   0.1267   1.0288   4.2539
     4.5609

     occupation numbers 
     1.0000   1.0000   1.0000   1.0000   1.0000   1.0000   1.0000   1.0000
     1.0000   1.0000   1.0000   1.0000   1.0000   0.0000   0.0000   0.0000
     0.0000

          k = 0.1667 0.2887 0.0000 (  3459 PWs)   bands (ev):

   -19.4830 -13.8008  -8.3681  -7.8663  -7.3596  -7.0648  -7.0292  -6.7990
    -4.9387  -4.6195  -4.1086  -3.3684  -3.0121   1.9376   2.6012   2.8485
     3.8843

     occupation numbers 
     1.0000   1.0000   1.0000   1.0000   1.0000   1.0000   1.0000   1.0000
     1.0000   1.0000   1.0000   1.0000   1.0000   0.0000   0.0000   0.0000
     0.0000

          k = 0.1667 0.4811 0.0000 (  3434 PWs)   bands (ev):

   -19.2966 -12.5445  -8.9245  -8.0738  -7.4814  -7.3923  -7.0705  -6.8265
    -5.9229  -5.6435  -4.4269  -3.2068  -2.2276   0.5897   2.6452   4.3122
     4.7376

     occupation numbers 
     1.0000   1.0000   1.0000   1.0000   1.0000   1.0000   1.0000   1.0000
     1.0000   1.0000   1.0000   1.0000   1.0000   0.0000   0.0000   0.0000
     0.0000

          k = 0.3333 0.5774 0.0000 (  3438 PWs)   bands (ev):

   -19.2356 -11.8925  -9.2282  -7.8719  -7.4847  -7.2168  -7.1753  -7.0436
    -6.3805  -5.7726  -5.7696  -2.7990  -1.6493  -0.0670   3.8762   4.6608
     5.3068

     occupation numbers 
     1.0000   1.0000   1.0000   1.0000   1.0000   1.0000   1.0000   1.0000
     1.0000   1.0000   1.0000   1.0000   1.0000   0.0000   0.0000   0.0000
     0.0000

     the Fermi energy is    -1.0387 ev

!    total energy              =    -203.18325599 Ry
     estimated scf accuracy    <       0.00000077 Ry
     smearing contrib. (-TS)   =       0.00000000 Ry
     internal energy E=F+TS    =    -203.18325599 Ry

     The total energy is F=E-TS. E is the sum of the following terms:
     one-electron contribution =   -1000.12401805 Ry
     hartree contribution      =     516.13203573 Ry
     xc contribution           =     -63.99130939 Ry
     ewald contribution        =     344.82931310 Ry
     DFT-D3 Dispersion         =      -0.02927738 Ry

     convergence has been achieved in   9 iterations

     Writing all to output data dir ./work/zno_sic_1_pot.save/

     init_run     :      6.19s CPU      2.52s WALL (       1 calls)
     electrons    :     52.95s CPU     14.55s WALL (       1 calls)

     Called by init_run:
     wfcinit      :      2.37s CPU      0.62s WALL (       1 calls)
     wfcinit:atom :      0.05s CPU      0.01s WALL (       7 calls)
     wfcinit:wfcr :      2.20s CPU      0.58s WALL (       7 calls)
     potinit      :      1.00s CPU      0.39s WALL (       1 calls)
     hinit0       :      1.79s CPU      1.18s WALL (       1 calls)

     Called by electrons:
     c_bands      :     32.96s CPU      8.63s WALL (       9 calls)
     sum_band     :     11.47s CPU      3.44s WALL (       9 calls)
     v_of_rho     :      1.16s CPU      0.30s WALL (      10 calls)
     v_h          :      0.08s CPU      0.02s WALL (      10 calls)
     v_xc         :      1.09s CPU      0.28s WALL (      10 calls)
     newd         :      8.10s CPU      2.39s WALL (      10 calls)
     mix_rho      :      0.19s CPU      0.05s WALL (       9 calls)
     energy_dftd3 :      0.06s CPU      0.04s WALL (       1 calls)

     Called by c_bands:
     init_us_2    :      0.39s CPU      0.11s WALL (     133 calls)
     init_us_2:cp :      0.39s CPU      0.11s WALL (     133 calls)
     cegterg      :     32.33s CPU      8.45s WALL (      63 calls)

     Called by sum_band:
     sum_band:wei :      0.00s CPU      0.00s WALL (       9 calls)
     sum_band:loo :      4.23s CPU      1.10s WALL (       9 calls)
     sum_band:buf :      0.04s CPU      0.01s WALL (      63 calls)
     sum_band:ini :      0.18s CPU      0.04s WALL (      63 calls)
     sum_band:cal :      1.56s CPU      0.38s WALL (      63 calls)
     sum_band:bec :      0.02s CPU      0.01s WALL (      63 calls)
     addusdens    :      7.07s CPU      2.30s WALL (       9 calls)
     addusd:skk   :      0.03s CPU      0.01s WALL (      36 calls)
     addusd:dgemm :      1.85s CPU      0.92s WALL (      36 calls)
     addusd:qvan2 :      4.63s CPU      1.21s WALL (      36 calls)

     Called by *egterg:
     cdiaghg      :      0.39s CPU      0.11s WALL (     299 calls)
     cegterg:over :      3.48s CPU      0.90s WALL (     236 calls)
     cegterg:upda :      1.28s CPU      0.33s WALL (     236 calls)
     cegterg:last :      2.75s CPU      0.77s WALL (     137 calls)
     h_psi        :     22.58s CPU      5.86s WALL (     306 calls)
     s_psi        :      2.24s CPU      0.59s WALL (     306 calls)
     g_psi        :      0.03s CPU      0.02s WALL (     236 calls)

     Called by h_psi:
     h_psi:calbec :      4.32s CPU      1.07s WALL (     306 calls)
     vloc_psi     :     15.97s CPU      4.18s WALL (     306 calls)
     add_vuspsi   :      2.16s CPU      0.58s WALL (     306 calls)

     General routines
     calbec       :      5.87s CPU      1.45s WALL (     369 calls)
     fft          :      1.52s CPU      0.69s WALL (     128 calls)
     ffts         :      0.64s CPU      0.29s WALL (      19 calls)
     fftw         :     16.70s CPU      4.35s WALL (    7165 calls)
     interpolate  :      0.69s CPU      0.30s WALL (      10 calls)


     PWSCF        :     59.44s CPU     17.34s WALL


   This run was terminated on:   4:50: 9  14Oct2022            

=------------------------------------------------------------------------------=
   JOB DONE.
=------------------------------------------------------------------------------=
