
     Program PWSCF v.7.0 starts on 14Oct2022 at  4:54:58 

     This program is part of the open-source Quantum ESPRESSO suite
     for quantum simulation of materials; please cite
         "P. Giannozzi et al., J. Phys.:Condens. Matter 21 395502 (2009);
         "P. Giannozzi et al., J. Phys.:Condens. Matter 29 465901 (2017);
         "P. Giannozzi et al., J. Chem. Phys. 152 154105 (2020);
          URL http://www.quantum-espresso.org", 
     in publications or presentations arising from this work. More details at
     http://www.quantum-espresso.org/quote

     Serial multi-threaded version, running on    4 processor cores
     5957 MiB available memory on the printing compute node when the environment starts

     Waiting for input...
     Reading input from standard input

     Current dimensions of program PWSCF are:
     Max number of different atomic species (ntypx) = 10
     Max number of k-points (npk) =  40000
     Max angular momentum in pseudopotentials (lmaxx) =  4
     file Zn.pbe-dnl-rrkjus_psl.1.0.0.UPF: wavefunction(s)  3D renormalized

     IMPORTANT: XC functional enforced from input :
     Exchange-correlation= PBE
                           (   1   4   3   4   0   0   0)
     Any further DFT definition will be discarded
     Please, verify this is what you really want


     --------------------------------------------
     DFT-D3 Dispersion Correction (3-body terms):
     --------------------------------------------
       Reference C6 values for interpolation: 

         atom   Coordination number   C6
         C          0.000            98.23
         C          0.987            86.49
         C          1.998            58.72
         C          2.999            51.56
         C          3.984            36.41
         O          0.000            31.01
         O          0.993            25.63
         O          1.989            20.74
         Si         0.000           635.71
         Si         0.951           540.53
         Si         1.944           466.25
         Si         2.941           443.01
         Si         3.868           299.55
         Zn         0.000           681.04
         Zn         1.942           306.91

       Values used:

         atom   Coordination number  R0_AB[au]  C6      C8
         Zn         3.859            3.053    306.91  23930.67
         O          2.926            2.345     20.74    418.58
         Si         3.513            3.583    339.97  24317.03
         C          2.991            2.750     51.37   1485.85

         Molecular C6 ( Ry / a.u.^6 ) =      2230.25


     G-vector sticks info
     --------------------
     sticks:   dense  smooth     PW     G-vecs:    dense   smooth      PW
     Sum         517     313     97                59295    27683    4803

     Using Slab Decomposition



     bravais-lattice index     =            4
     lattice parameter (alat)  =       6.1643  a.u.
     unit-cell volume          =    1243.7272 (a.u.)^3
     number of atoms/cell      =            4
     number of atomic types    =            4
     number of electrons       =        26.00
     number of Kohn-Sham states=           17
     kinetic-energy cutoff     =      30.0000  Ry
     charge density cutoff     =     200.0000  Ry
     scf convergence threshold =      1.0E-06
     mixing beta               =       0.7000
     number of iterations used =            8  plain     mixing
     Exchange-correlation= PBE
                           (   1   4   3   4   0   0   0)

     celldm(1)=   6.164287  celldm(2)=   0.000000  celldm(3)=   6.131208
     celldm(4)=   0.000000  celldm(5)=   0.000000  celldm(6)=   0.000000

     crystal axes: (cart. coord. in units of alat)
               a(1) = (   1.000000   0.000000   0.000000 )  
               a(2) = (  -0.500000   0.866025   0.000000 )  
               a(3) = (   0.000000   0.000000   6.131208 )  

     reciprocal axes: (cart. coord. in units 2 pi/alat)
               b(1) = (  1.000000  0.577350 -0.000000 )  
               b(2) = (  0.000000  1.154701  0.000000 )  
               b(3) = (  0.000000 -0.000000  0.163100 )  


     PseudoPot. # 1 for Zn read from file:
     ./pseudo/Zn.pbe-dnl-rrkjus_psl.1.0.0.UPF
     MD5 check sum: 7f56cabf9682ed8c977c2f7d0c5985c5
     Pseudo is Ultrasoft + core correction, Zval = 12.0
     Generated using &quot;atomic&quot; code by A. Dal Corso  v.6.2.2
     Using radial grid of 1201 points,  6 beta functions with: 
                l(1) =   0
                l(2) =   0
                l(3) =   1
                l(4) =   1
                l(5) =   2
                l(6) =   2
     Q(r) pseudized with 0 coefficients 


     PseudoPot. # 2 for O  read from file:
     ./pseudo/O.pbe-n-rrkjus_psl.1.0.0.UPF
     MD5 check sum: 91400c9766925bcf19f520983a725ff0
     Pseudo is Ultrasoft + core correction, Zval =  6.0
     Generated using &quot;atomic&quot; code by A. Dal Corso  v.6.3MaX
     Using radial grid of 1095 points,  4 beta functions with: 
                l(1) =   0
                l(2) =   0
                l(3) =   1
                l(4) =   1
     Q(r) pseudized with 0 coefficients 


     PseudoPot. # 3 for Si read from file:
     ./pseudo/Si.pbe-nl-rrkjus_psl.1.0.0.UPF
     MD5 check sum: 78279d3766ecb5dbdc0623f3e93c9a23
     Pseudo is Ultrasoft + core correction, Zval =  4.0
     Generated using &quot;atomic&quot; code by A. Dal Corso  v.6.3
     Using radial grid of 1141 points,  4 beta functions with: 
                l(1) =   0
                l(2) =   0
                l(3) =   1
                l(4) =   1
     Q(r) pseudized with 0 coefficients 


     PseudoPot. # 4 for C  read from file:
     ./pseudo/C.pbe-n-rrkjus_psl.1.0.0.UPF
     MD5 check sum: 1fdd950c42eb37d8afe3dd2f8d12311e
     Pseudo is Ultrasoft + core correction, Zval =  4.0
     Generated using &quot;atomic&quot; code by A. Dal Corso  v.6.3MaX
     Using radial grid of 1073 points,  4 beta functions with: 
                l(1) =   0
                l(2) =   0
                l(3) =   1
                l(4) =   1
     Q(r) pseudized with 0 coefficients 


     atomic species   valence    mass     pseudopotential
        Zn            12.00    65.40900     Zn( 1.00)
        O              6.00    15.99940     O ( 1.00)
        Si             4.00    28.08550     Si( 1.00)
        C              4.00    12.01070     C ( 1.00)

      6 Sym. Ops. (no inversion) found


                                    s                        frac. trans.

      isym =  1     identity                                     

 cryst.   s( 1) = (     1          0          0      )
                  (     0          1          0      )
                  (     0          0          1      )

 cart.    s( 1) = (  1.0000000  0.0000000  0.0000000 )
                  (  0.0000000  1.0000000  0.0000000 )
                  (  0.0000000  0.0000000  1.0000000 )


      isym =  2     120 deg rotation - cryst. axis [0,0,1]       

 cryst.   s( 2) = (     0          1          0      )
                  (    -1         -1          0      )
                  (     0          0          1      )

 cart.    s( 2) = ( -0.5000000 -0.8660254  0.0000000 )
                  (  0.8660254 -0.5000000  0.0000000 )
                  (  0.0000000  0.0000000  1.0000000 )


      isym =  3     120 deg rotation - cryst. axis [0,0,-1]      

 cryst.   s( 3) = (    -1         -1          0      )
                  (     1          0          0      )
                  (     0          0          1      )

 cart.    s( 3) = ( -0.5000000  0.8660254  0.0000000 )
                  ( -0.8660254 -0.5000000  0.0000000 )
                  (  0.0000000  0.0000000  1.0000000 )


      isym =  4     inv. 180 deg rotation - cart. axis [1,0,0]   

 cryst.   s( 4) = (    -1          0          0      )
                  (     1          1          0      )
                  (     0          0          1      )

 cart.    s( 4) = ( -1.0000000  0.0000000  0.0000000 )
                  (  0.0000000  1.0000000  0.0000000 )
                  (  0.0000000  0.0000000  1.0000000 )


      isym =  5     inv. 180 deg rotation - cryst. axis [0,1,0]  

 cryst.   s( 5) = (     1          1          0      )
                  (     0         -1          0      )
                  (     0          0          1      )

 cart.    s( 5) = (  0.5000000  0.8660254  0.0000000 )
                  (  0.8660254 -0.5000000  0.0000000 )
                  (  0.0000000  0.0000000  1.0000000 )


      isym =  6     inv. 180 deg rotation - cryst. axis [1,1,0]  

 cryst.   s( 6) = (     0         -1          0      )
                  (    -1          0          0      )
                  (     0          0          1      )

 cart.    s( 6) = (  0.5000000 -0.8660254  0.0000000 )
                  ( -0.8660254 -0.5000000  0.0000000 )
                  (  0.0000000  0.0000000  1.0000000 )


     point group C_3v (3m)  
     there are  3 classes
     the character table:

       E     2C3   3s_v 
A_1    1.00  1.00  1.00
A_2    1.00  1.00 -1.00
E      2.00 -1.00  0.00

     the symmetry operations in each class and the name of the first element:

     E        1
          identity                                               
     2C3      2    3
          120 deg rotation - cryst. axis [0,0,1]                 
     3s_v     4    5    6
          inv. 180 deg rotation - cart. axis [1,0,0]             

   Cartesian axes

     site n.     atom                  positions (alat units)
         1           Zn  tau(   1) = (   0.5000000   0.2886751   2.6057633  )
         2           O   tau(   2) = (   0.5000000   0.8660254   2.6057633  )
         3           Si  tau(   3) = (   0.0000000   0.0000000   1.5328020  )
         4           C   tau(   4) = (   0.0000000   0.5773503   1.5328020  )

   Crystallographic axes

     site n.     atom                  positions (cryst. coord.)
         1           Zn  tau(   1) = (  0.6666667  0.3333333  0.4250000  )
         2           O   tau(   2) = (  1.0000000  1.0000000  0.4250000  )
         3           Si  tau(   3) = (  0.0000000  0.0000000  0.2500000  )
         4           C   tau(   4) = (  0.3333333  0.6666667  0.2500000  )

     number of k points=     7  Marzari-Vanderbilt smearing, width (Ry)=  0.0050
                       cart. coord. in units 2pi/alat
        k(    1) = (   0.0000000   0.0000000   0.0000000), wk =   0.0555556
        k(    2) = (   0.0000000   0.1924501   0.0000000), wk =   0.3333333
        k(    3) = (   0.0000000   0.3849002   0.0000000), wk =   0.3333333
        k(    4) = (   0.0000000  -0.5773503   0.0000000), wk =   0.1666667
        k(    5) = (   0.1666667   0.2886751   0.0000000), wk =   0.3333333
        k(    6) = (   0.1666667   0.4811252   0.0000000), wk =   0.6666667
        k(    7) = (   0.3333333   0.5773503   0.0000000), wk =   0.1111111

                       cryst. coord.
        k(    1) = (   0.0000000   0.0000000   0.0000000), wk =   0.0555556
        k(    2) = (   0.0000000   0.1666667   0.0000000), wk =   0.3333333
        k(    3) = (   0.0000000   0.3333333   0.0000000), wk =   0.3333333
        k(    4) = (   0.0000000  -0.5000000   0.0000000), wk =   0.1666667
        k(    5) = (   0.1666667   0.1666667   0.0000000), wk =   0.3333333
        k(    6) = (   0.1666667   0.3333333   0.0000000), wk =   0.6666667
        k(    7) = (   0.3333333   0.3333333   0.0000000), wk =   0.1111111

     Dense  grid:    59295 G-vectors     FFT dimensions: (  27,  27, 180)

     Smooth grid:    27683 G-vectors     FFT dimensions: (  24,  24, 135)

     Dynamical RAM for                 wfc:       0.90 MB

     Dynamical RAM for     wfc (w. buffer):       7.16 MB

     Dynamical RAM for           str. fact:       3.62 MB

     Dynamical RAM for           local pot:       0.00 MB

     Dynamical RAM for          nlocal pot:       2.21 MB

     Dynamical RAM for                qrad:       4.54 MB

     Dynamical RAM for          rho,v,vnew:       5.72 MB

     Dynamical RAM for               rhoin:       1.91 MB

     Dynamical RAM for            rho*nmix:      14.48 MB

     Dynamical RAM for           G-vectors:       3.60 MB

     Dynamical RAM for          h,s,v(r/c):       0.05 MB

     Dynamical RAM for          <psi|beta>:       0.01 MB

     Dynamical RAM for                 psi:       1.79 MB

     Dynamical RAM for                hpsi:       1.79 MB

     Dynamical RAM for                spsi:       1.79 MB

     Dynamical RAM for      wfcinit/wfcrot:       2.22 MB

     Dynamical RAM for           addusdens:     169.19 MB

     Estimated static dynamical RAM per process >      38.29 MB

     Estimated max dynamical RAM per process >     221.96 MB

     Check: negative core charge=   -0.000012

     Initial potential from superposition of free atoms

     starting charge      25.9957, renormalised to      26.0000

     negative rho (up, down):  1.381E-03 0.000E+00
     Starting wfcs are   21 randomized atomic wfcs

     total cpu time spent up to now is        2.6 secs

     Self-consistent Calculation

     iteration #  1     ecut=    30.00 Ry     beta= 0.70
     Davidson diagonalization with overlap

---- Real-time Memory Report at c_bands before calling an iterative solver
           223 MiB given to the printing process from OS
             0 MiB allocation reported by mallinfo(arena+hblkhd)
          5923 MiB available memory on the node where the printing process lives
------------------
     ethr =  1.00E-02,  avg # of iterations =  3.1

     negative rho (up, down):  1.547E-03 0.000E+00

     total cpu time spent up to now is        4.2 secs

     total energy              =    -202.77781948 Ry
     estimated scf accuracy    <       0.93798840 Ry

     iteration #  2     ecut=    30.00 Ry     beta= 0.70
     Davidson diagonalization with overlap

---- Real-time Memory Report at c_bands before calling an iterative solver
           240 MiB given to the printing process from OS
             0 MiB allocation reported by mallinfo(arena+hblkhd)
          5910 MiB available memory on the node where the printing process lives
------------------
     ethr =  3.61E-03,  avg # of iterations =  3.3

     negative rho (up, down):  2.287E-03 0.000E+00

     total cpu time spent up to now is        5.7 secs

     total energy              =    -202.94875524 Ry
     estimated scf accuracy    <       1.24332413 Ry

     iteration #  3     ecut=    30.00 Ry     beta= 0.70
     Davidson diagonalization with overlap

---- Real-time Memory Report at c_bands before calling an iterative solver
           241 MiB given to the printing process from OS
             0 MiB allocation reported by mallinfo(arena+hblkhd)
          5910 MiB available memory on the node where the printing process lives
------------------
     ethr =  3.61E-03,  avg # of iterations =  2.6

     negative rho (up, down):  1.465E-03 0.000E+00

     total cpu time spent up to now is        7.1 secs

     total energy              =    -203.17185517 Ry
     estimated scf accuracy    <       0.06496206 Ry

     iteration #  4     ecut=    30.00 Ry     beta= 0.70
     Davidson diagonalization with overlap

---- Real-time Memory Report at c_bands before calling an iterative solver
           242 MiB given to the printing process from OS
             0 MiB allocation reported by mallinfo(arena+hblkhd)
          5909 MiB available memory on the node where the printing process lives
------------------
     ethr =  2.50E-04,  avg # of iterations =  4.1

     negative rho (up, down):  1.520E-03 0.000E+00

     total cpu time spent up to now is        8.9 secs

     total energy              =    -203.19355428 Ry
     estimated scf accuracy    <       0.00912168 Ry

     iteration #  5     ecut=    30.00 Ry     beta= 0.70
     Davidson diagonalization with overlap

---- Real-time Memory Report at c_bands before calling an iterative solver
           242 MiB given to the printing process from OS
             0 MiB allocation reported by mallinfo(arena+hblkhd)
          5902 MiB available memory on the node where the printing process lives
------------------
     ethr =  3.51E-05,  avg # of iterations =  4.7

     negative rho (up, down):  1.639E-03 0.000E+00

     total cpu time spent up to now is       10.5 secs

     total energy              =    -203.19539530 Ry
     estimated scf accuracy    <       0.00298411 Ry

     iteration #  6     ecut=    30.00 Ry     beta= 0.70
     Davidson diagonalization with overlap

---- Real-time Memory Report at c_bands before calling an iterative solver
           243 MiB given to the printing process from OS
             0 MiB allocation reported by mallinfo(arena+hblkhd)
          5901 MiB available memory on the node where the printing process lives
------------------
     ethr =  1.15E-05,  avg # of iterations =  5.1

     negative rho (up, down):  1.644E-03 0.000E+00

     total cpu time spent up to now is       12.0 secs

     total energy              =    -203.19582402 Ry
     estimated scf accuracy    <       0.00025908 Ry

     iteration #  7     ecut=    30.00 Ry     beta= 0.70
     Davidson diagonalization with overlap

---- Real-time Memory Report at c_bands before calling an iterative solver
           244 MiB given to the printing process from OS
             0 MiB allocation reported by mallinfo(arena+hblkhd)
          5900 MiB available memory on the node where the printing process lives
------------------
     ethr =  9.96E-07,  avg # of iterations =  5.1

     negative rho (up, down):  1.652E-03 0.000E+00

     total cpu time spent up to now is       13.6 secs

     total energy              =    -203.19587149 Ry
     estimated scf accuracy    <       0.00004778 Ry

     iteration #  8     ecut=    30.00 Ry     beta= 0.70
     Davidson diagonalization with overlap

---- Real-time Memory Report at c_bands before calling an iterative solver
           245 MiB given to the printing process from OS
             0 MiB allocation reported by mallinfo(arena+hblkhd)
          5899 MiB available memory on the node where the printing process lives
------------------
     ethr =  1.84E-07,  avg # of iterations =  2.3

     negative rho (up, down):  1.660E-03 0.000E+00

     total cpu time spent up to now is       15.3 secs

     total energy              =    -203.19587547 Ry
     estimated scf accuracy    <       0.00001084 Ry

     iteration #  9     ecut=    30.00 Ry     beta= 0.70
     Davidson diagonalization with overlap

---- Real-time Memory Report at c_bands before calling an iterative solver
           246 MiB given to the printing process from OS
             0 MiB allocation reported by mallinfo(arena+hblkhd)
          5885 MiB available memory on the node where the printing process lives
------------------
     ethr =  4.17E-08,  avg # of iterations =  2.4

     negative rho (up, down):  1.665E-03 0.000E+00

     total cpu time spent up to now is       16.7 secs

     End of self-consistent calculation

          k = 0.0000 0.0000 0.0000 (  3509 PWs)   bands (ev):

   -19.9034 -14.7998  -8.4414  -8.4414  -7.0356  -6.9900  -6.9900  -5.4359
    -4.2769  -3.2197  -3.2197  -2.0549  -2.0549  -0.3343   1.2657   2.4648
     2.8191

     occupation numbers 
     1.0000   1.0000   1.0000   1.0000   1.0000   1.0000   1.0000   1.0000
     1.0000   1.0000   1.0000   1.0000   1.0000   0.0000   0.0000   0.0000
     0.0000

          k = 0.0000 0.1925 0.0000 (  3481 PWs)   bands (ev):

   -19.7869 -14.3988  -8.4714  -8.2506  -7.1790  -6.9974  -6.9895  -5.0127
    -4.9058  -3.9018  -3.6576  -3.2212  -2.4954   0.8343   1.9593   2.9710
     3.2350

     occupation numbers 
     1.0000   1.0000   1.0000   1.0000   1.0000   1.0000   1.0000   1.0000
     1.0000   1.0000   1.0000   1.0000   1.0000   0.0000   0.0000   0.0000
     0.0000

          k = 0.0000 0.3849 0.0000 (  3445 PWs)   bands (ev):

   -19.5460 -13.2809  -8.3449  -7.7996  -7.7142  -7.4278  -7.0239  -6.9040
    -4.9790  -4.3478  -3.7939  -3.4175  -3.0571   1.5793   2.0804   2.8943
     3.7465

     occupation numbers 
     1.0000   1.0000   1.0000   1.0000   1.0000   1.0000   1.0000   1.0000
     1.0000   1.0000   1.0000   1.0000   1.0000   0.0000   0.0000   0.0000
     0.0000

          k = 0.0000-0.5774 0.0000 (  3444 PWs)   bands (ev):

   -19.4216 -12.2496  -9.3616  -8.1279  -7.5299  -7.5102  -7.0357  -6.8505
    -5.9056  -4.6347  -3.9365  -3.0630  -2.3140   0.5055   1.2633   4.1486
     4.3150

     occupation numbers 
     1.0000   1.0000   1.0000   1.0000   1.0000   1.0000   1.0000   1.0000
     1.0000   1.0000   1.0000   1.0000   1.0000   0.0000   0.0000   0.0000
     0.0000

          k = 0.1667 0.2887 0.0000 (  3459 PWs)   bands (ev):

   -19.6078 -13.6325  -8.4102  -7.9048  -7.3688  -7.0346  -6.9344  -6.7045
    -4.7785  -4.4648  -4.0748  -3.4483  -3.2739   2.1727   2.7492   3.1220
     3.7408

     occupation numbers 
     1.0000   1.0000   1.0000   1.0000   1.0000   1.0000   1.0000   1.0000
     1.0000   1.0000   1.0000   1.0000   1.0000   0.0000   0.0000   0.0000
     0.0000

          k = 0.1667 0.4811 0.0000 (  3434 PWs)   bands (ev):

   -19.4239 -12.3764  -8.7341  -8.1183  -7.4929  -7.4252  -7.0669  -6.8268
    -5.7850  -5.6227  -4.4990  -3.1033  -2.3810   1.0153   2.9719   4.1504
     4.2890

     occupation numbers 
     1.0000   1.0000   1.0000   1.0000   1.0000   1.0000   1.0000   1.0000
     1.0000   1.0000   1.0000   1.0000   1.0000   0.0000   0.0000   0.0000
     0.0000

          k = 0.3333 0.5774 0.0000 (  3438 PWs)   bands (ev):

   -19.3638 -11.7269  -9.0297  -7.9078  -7.4966  -7.1995  -7.1179  -6.9856
    -6.3931  -5.8659  -5.7580  -2.8231  -1.7045   0.4355   3.8833   4.6287
     5.2480

     occupation numbers 
     1.0000   1.0000   1.0000   1.0000   1.0000   1.0000   1.0000   1.0000
     1.0000   1.0000   1.0000   1.0000   1.0000   0.0000   0.0000   0.0000
     0.0000

     the Fermi energy is    -0.6997 ev

!    total energy              =    -203.19587811 Ry
     estimated scf accuracy    <       0.00000038 Ry
     smearing contrib. (-TS)   =      -0.00000000 Ry
     internal energy E=F+TS    =    -203.19587811 Ry

     The total energy is F=E-TS. E is the sum of the following terms:
     one-electron contribution =    -958.53961029 Ry
     hartree contribution      =     495.34035457 Ry
     xc contribution           =     -63.98003723 Ry
     ewald contribution        =     324.01191303 Ry
     DFT-D3 Dispersion         =      -0.02849819 Ry

     convergence has been achieved in   9 iterations

     Writing all to output data dir ./work/zno_sic_2_pot.save/

     init_run     :      5.60s CPU      2.27s WALL (       1 calls)
     electrons    :     51.70s CPU     14.16s WALL (       1 calls)

     Called by init_run:
     wfcinit      :      2.26s CPU      0.58s WALL (       1 calls)
     wfcinit:atom :      0.03s CPU      0.01s WALL (       7 calls)
     wfcinit:wfcr :      2.09s CPU      0.54s WALL (       7 calls)
     potinit      :      0.82s CPU      0.31s WALL (       1 calls)
     hinit0       :      1.72s CPU      1.14s WALL (       1 calls)

     Called by electrons:
     c_bands      :     31.20s CPU      8.02s WALL (       9 calls)
     sum_band     :     11.76s CPU      3.57s WALL (       9 calls)
     v_of_rho     :      1.14s CPU      0.29s WALL (      10 calls)
     v_h          :      0.08s CPU      0.02s WALL (      10 calls)
     v_xc         :      1.06s CPU      0.27s WALL (      10 calls)
     newd         :      8.09s CPU      2.40s WALL (      10 calls)
     mix_rho      :      0.20s CPU      0.05s WALL (       9 calls)
     energy_dftd3 :      0.06s CPU      0.05s WALL (       1 calls)

     Called by c_bands:
     init_us_2    :      0.25s CPU      0.09s WALL (     133 calls)
     init_us_2:cp :      0.25s CPU      0.09s WALL (     133 calls)
     cegterg      :     30.60s CPU      7.86s WALL (      63 calls)

     Called by sum_band:
     sum_band:wei :      0.00s CPU      0.00s WALL (       9 calls)
     sum_band:loo :      4.34s CPU      1.14s WALL (       9 calls)
     sum_band:buf :      0.03s CPU      0.01s WALL (      63 calls)
     sum_band:ini :      0.09s CPU      0.04s WALL (      63 calls)
     sum_band:cal :      1.58s CPU      0.38s WALL (      63 calls)
     sum_band:bec :      0.06s CPU      0.02s WALL (      63 calls)
     addusdens    :      7.22s CPU      2.38s WALL (       9 calls)
     addusd:skk   :      0.04s CPU      0.01s WALL (      36 calls)
     addusd:dgemm :      1.88s CPU      0.93s WALL (      36 calls)
     addusd:qvan2 :      4.77s CPU      1.28s WALL (      36 calls)

     Called by *egterg:
     cdiaghg      :      0.34s CPU      0.11s WALL (     293 calls)
     cegterg:over :      3.38s CPU      0.86s WALL (     230 calls)
     cegterg:upda :      1.18s CPU      0.31s WALL (     230 calls)
     cegterg:last :      2.41s CPU      0.67s WALL (     132 calls)
     h_psi        :     21.43s CPU      5.47s WALL (     300 calls)
     s_psi        :      2.29s CPU      0.56s WALL (     300 calls)
     g_psi        :      0.09s CPU      0.02s WALL (     230 calls)

     Called by h_psi:
     h_psi:calbec :      3.97s CPU      1.04s WALL (     300 calls)
     vloc_psi     :     15.12s CPU      3.85s WALL (     300 calls)
     add_vuspsi   :      2.26s CPU      0.56s WALL (     300 calls)

     General routines
     calbec       :      5.55s CPU      1.42s WALL (     363 calls)
     fft          :      1.34s CPU      0.65s WALL (     128 calls)
     ffts         :      0.51s CPU      0.23s WALL (      19 calls)
     fftw         :     15.91s CPU      4.13s WALL (    7051 calls)
     interpolate  :      0.54s CPU      0.24s WALL (      10 calls)


     PWSCF        :     57.63s CPU     16.73s WALL


   This run was terminated on:   4:55:14  14Oct2022            

=------------------------------------------------------------------------------=
   JOB DONE.
=------------------------------------------------------------------------------=
