
     Program PWSCF v.6.3 starts on 19Apr2020 at 17: 3:56 

     This program is part of the open-source Quantum ESPRESSO suite
     for quantum simulation of materials; please cite
         "P. Giannozzi et al., J. Phys.:Condens. Matter 21 395502 (2009);
         "P. Giannozzi et al., J. Phys.:Condens. Matter 29 465901 (2017);
          URL http://www.quantum-espresso.org", 
     in publications or presentations arising from this work. More details at
     http://www.quantum-espresso.org/quote

     Parallel version (MPI), running on     1 processors

     MPI processes distributed on     1 nodes
     Waiting for input...
     Reading input from standard input

     Current dimensions of program PWSCF are:
     Max number of different atomic species (ntypx) = 10
     Max number of k-points (npk) =  40000
     Max angular momentum in pseudopotentials (lmaxx) =  3

     IMPORTANT: XC functional enforced from input :
     Exchange-correlation      = HSE ( 1  4 12  4 0 0)
     EXX-fraction              =        0.25
     Any further DFT definition will be discarded
     Please, verify this is what you really want

               file Ge.pbe-mt_fhi.UPF: wavefunction(s)  4d 4f renormalized
               file C.pbe-mt_fhi.UPF: wavefunction(s)  4f renormalized
               file Si.pbe-mt_fhi.UPF: wavefunction(s)  4f renormalized

     -------------------------------------------------
     Parameters for Dispersion (Grimme-D2) Correction:
     -------------------------------------------------
       atom      VdW radius       C_6     

        Ge         3.264        593.221
        C          2.744         60.710
        Si         3.243        320.200

     Subspace diagonalization in iterative solution of the eigenvalue problem:
     a serial algorithm will be used

     EXX: setup a grid of 3 q-points centered on each k-point
     (k+q)-points:
   0.0000000   0.0000000   0.0000000         1    1
   0.0000000   0.3849002   0.0000000         2    1
   0.3333333   0.5773503   0.0000000         3    1

     G-vector sticks info
     --------------------
     sticks:   dense  smooth     PW     G-vecs:    dense   smooth      PW
     Sum        4429    4429   1177               388955   388955   53541



     bravais-lattice index     =            4
     lattice parameter (alat)  =      23.1302  a.u.
     unit-cell volume          =   17511.3678 (a.u.)^3
     number of atoms/cell      =           50
     number of atomic types    =            3
     number of electrons       =       200.00
     number of Kohn-Sham states=          124
     kinetic-energy cutoff     =      30.0000  Ry
     charge density cutoff     =     120.0000  Ry
     cutoff for Fock operator  =     120.0000  Ry
     convergence threshold     =      1.0E-04
     mixing beta               =       0.7000
     number of iterations used =            8  plain     mixing
     Exchange-correlation      = HSE ( 1  4 12  4 0 0)
     EXX-fraction              =        0.25

     celldm(1)=  23.130248  celldm(2)=   0.000000  celldm(3)=   1.633987
     celldm(4)=   0.000000  celldm(5)=   0.000000  celldm(6)=   0.000000

     crystal axes: (cart. coord. in units of alat)
               a(1) = (   1.000000   0.000000   0.000000 )  
               a(2) = (  -0.500000   0.866025   0.000000 )  
               a(3) = (   0.000000   0.000000   1.633987 )  

     reciprocal axes: (cart. coord. in units 2 pi/alat)
               b(1) = (  1.000000  0.577350 -0.000000 )  
               b(2) = (  0.000000  1.154701  0.000000 )  
               b(3) = (  0.000000 -0.000000  0.612000 )  


     PseudoPot. # 1 for Ge read from file:
     ./pseudo/Ge.pbe-mt_fhi.UPF
     MD5 check sum: b08ff19c3d362044f6e29226b459d86a
     Pseudo is Norm-conserving, Zval =  4.0
     Generated using FHI98PP, converted with fhi2upf.x v.5.0.2
     Using radial grid of  529 points,  3 beta functions with: 
                l(1) =   1
                l(2) =   2
                l(3) =   3

     PseudoPot. # 2 for C  read from file:
     ./pseudo/C.pbe-mt_fhi.UPF
     MD5 check sum: 058ca341f9d6d5327d9962fd88a91b65
     Pseudo is Norm-conserving, Zval =  4.0
     Generated using FHI98PP, converted with fhi2upf.x v.5.0.2
     Using radial grid of  461 points,  3 beta functions with: 
                l(1) =   0
                l(2) =   1
                l(3) =   3

     PseudoPot. # 3 for Si read from file:
     ./pseudo/Si.pbe-mt_fhi.UPF
     MD5 check sum: 259057c2adf9952f9ced37ae3d9e311d
     Pseudo is Norm-conserving, Zval =  4.0
     Generated using FHI98PP, converted with fhi2upf.x v.5.0.2
     Using radial grid of  495 points,  3 beta functions with: 
                l(1) =   0
                l(2) =   1
                l(3) =   3

     atomic species   valence    mass     pseudopotential
        Ge             4.00    72.59000     Ge( 1.00)
        C              4.00    12.01070     C ( 1.00)
        Si             4.00    28.08550     Si( 1.00)

      6 Sym. Ops. (no inversion) found



   Cartesian axes

     site n.     atom                  positions (alat units)
         1           Ge  tau(   1) = (   0.0000000   0.0000000   0.2614379  )
         2           Ge  tau(   2) = (   0.0000000   0.1924510   0.3163399  )
         3           Ge  tau(   3) = (  -0.1666667   0.2886751   0.2614379  )
         4           Ge  tau(   4) = (  -0.1666667   0.4811261   0.3163399  )
         5           Ge  tau(   5) = (  -0.3333333   0.5773503   0.2614379  )
         6           Ge  tau(   6) = (  -0.3333333   0.7698012   0.3163399  )
         7           Ge  tau(   7) = (   0.3333333   0.0000000   0.2614379  )
         8           Ge  tau(   8) = (   0.3333333   0.1924510   0.3163399  )
         9           Ge  tau(   9) = (   0.1666667   0.2886751   0.2614379  )
        10           Ge  tau(  10) = (   0.1666667   0.4811261   0.3163399  )
        11           Ge  tau(  11) = (   0.0000000   0.5773503   0.2614379  )
        12           Ge  tau(  12) = (   0.0000000   0.7698012   0.3163399  )
        13           Ge  tau(  13) = (   0.6666667   0.0000000   0.2614379  )
        14           Ge  tau(  14) = (   0.6666667   0.1924510   0.3163399  )
        15           Ge  tau(  15) = (   0.5000000   0.2886751   0.2614379  )
        16           Ge  tau(  16) = (   0.5000000   0.4811261   0.3163399  )
        17           Ge  tau(  17) = (   0.3333333   0.5773503   0.2614379  )
        18           Ge  tau(  18) = (   0.3333333   0.7698012   0.3163399  )
        19           Si  tau(  19) = (   0.0000000   0.0000000   0.0000000  )
        20           C   tau(  20) = (   0.0000000   0.1443382   0.0000000  )
        21           Si  tau(  21) = (  -0.1250000   0.2165064   0.0000000  )
        22           C   tau(  22) = (  -0.1250000   0.3608446   0.0000000  )
        23           Si  tau(  23) = (  -0.2500000   0.4330127   0.0000000  )
        24           C   tau(  24) = (  -0.2500000   0.5773509   0.0000000  )
        25           Si  tau(  25) = (  -0.3750000   0.6495191   0.0000000  )
        26           C   tau(  26) = (  -0.3750000   0.7938573   0.0000000  )
        27           Si  tau(  27) = (   0.2500000   0.0000000   0.0000000  )
        28           C   tau(  28) = (   0.2500000   0.1443382   0.0000000  )
        29           Si  tau(  29) = (   0.1250000   0.2165064   0.0000000  )
        30           C   tau(  30) = (   0.1250000   0.3608446   0.0000000  )
        31           Si  tau(  31) = (   0.0000000   0.4330127   0.0000000  )
        32           C   tau(  32) = (   0.0000000   0.5773509   0.0000000  )
        33           Si  tau(  33) = (  -0.1250000   0.6495191   0.0000000  )
        34           C   tau(  34) = (  -0.1250000   0.7938573   0.0000000  )
        35           Si  tau(  35) = (   0.5000000   0.0000000   0.0000000  )
        36           C   tau(  36) = (   0.5000000   0.1443382   0.0000000  )
        37           Si  tau(  37) = (   0.3750000   0.2165064   0.0000000  )
        38           C   tau(  38) = (   0.3750000   0.3608446   0.0000000  )
        39           Si  tau(  39) = (   0.2500000   0.4330127   0.0000000  )
        40           C   tau(  40) = (   0.2500000   0.5773509   0.0000000  )
        41           Si  tau(  41) = (   0.1250000   0.6495191   0.0000000  )
        42           C   tau(  42) = (   0.1250000   0.7938573   0.0000000  )
        43           Si  tau(  43) = (   0.7500000   0.0000000   0.0000000  )
        44           C   tau(  44) = (   0.7500000   0.1443382   0.0000000  )
        45           Si  tau(  45) = (   0.6250000   0.2165064   0.0000000  )
        46           C   tau(  46) = (   0.6250000   0.3608446   0.0000000  )
        47           Si  tau(  47) = (   0.5000000   0.4330127   0.0000000  )
        48           C   tau(  48) = (   0.5000000   0.5773509   0.0000000  )
        49           Si  tau(  49) = (   0.3750000   0.6495191   0.0000000  )
        50           C   tau(  50) = (   0.3750000   0.7938573   0.0000000  )

     number of k points=     3
                       cart. coord. in units 2pi/alat
        k(    1) = (   0.0000000   0.0000000   0.0000000), wk =   0.2222222
        k(    2) = (   0.0000000   0.3849002   0.0000000), wk =   1.3333333
        k(    3) = (   0.3333333   0.5773503   0.0000000), wk =   0.4444444

     Dense  grid:   388955 G-vectors     FFT dimensions: (  81,  81, 135)

     Estimated max dynamical RAM per process >       6.85 GB

     Initial potential from superposition of free atoms
     Check: negative starting charge=   -0.006731

     starting charge  199.97158, renormalised to  200.00000

     negative rho (up, down):  6.732E-03 0.000E+00
     Starting wfcs are  800 randomized atomic wfcs

     total cpu time spent up to now is      656.8 secs

     Self-consistent Calculation

     iteration #  1     ecut=    30.00 Ry     beta= 0.70
     Davidson diagonalization with overlap
     ethr =  1.00E-02,  avg # of iterations =  2.0

     negative rho (up, down):  1.401E-03 0.000E+00

     total cpu time spent up to now is      892.2 secs

     total energy              =    -444.58135891 Ry
     Harris-Foulkes estimate   =    -451.60202123 Ry
     estimated scf accuracy    <      10.40655256 Ry

     iteration #  2     ecut=    30.00 Ry     beta= 0.70
     Davidson diagonalization with overlap
     ethr =  5.20E-03,  avg # of iterations =  4.7

     negative rho (up, down):  1.029E-03 0.000E+00

     total cpu time spent up to now is     1167.9 secs

     total energy              =    -436.64022065 Ry
     Harris-Foulkes estimate   =    -452.61468280 Ry
     estimated scf accuracy    <      47.04024568 Ry

     iteration #  3     ecut=    30.00 Ry     beta= 0.70
     Davidson diagonalization with overlap
     ethr =  5.20E-03,  avg # of iterations =  6.0

     negative rho (up, down):  4.259E-04 0.000E+00

     total cpu time spent up to now is     1478.3 secs

     total energy              =    -438.39939473 Ry
     Harris-Foulkes estimate   =    -456.12110146 Ry
     estimated scf accuracy    <     140.04454620 Ry

     iteration #  4     ecut=    30.00 Ry     beta= 0.70
     Davidson diagonalization with overlap
     ethr =  5.20E-03,  avg # of iterations =  4.3

     negative rho (up, down):  2.654E-04 0.000E+00

     total cpu time spent up to now is     1620.8 secs

     total energy              =    -448.50775949 Ry
     Harris-Foulkes estimate   =    -448.83866667 Ry
     estimated scf accuracy    <       1.09876466 Ry

     iteration #  5     ecut=    30.00 Ry     beta= 0.70
     Davidson diagonalization with overlap
     ethr =  5.49E-04,  avg # of iterations =  9.3

     negative rho (up, down):  5.536E-05 0.000E+00

     total cpu time spent up to now is     1802.0 secs

     total energy              =    -448.65363529 Ry
     Harris-Foulkes estimate   =    -448.71161903 Ry
     estimated scf accuracy    <       0.17571341 Ry

     iteration #  6     ecut=    30.00 Ry     beta= 0.70
     Davidson diagonalization with overlap
     ethr =  8.79E-05,  avg # of iterations =  6.7

     negative rho (up, down):  4.760E-07 0.000E+00

     total cpu time spent up to now is     1974.0 secs

     total energy              =    -448.65169295 Ry
     Harris-Foulkes estimate   =    -448.68843333 Ry
     estimated scf accuracy    <       0.09132520 Ry

     iteration #  7     ecut=    30.00 Ry     beta= 0.70
     Davidson diagonalization with overlap
     ethr =  4.57E-05,  avg # of iterations =  3.0

     total cpu time spent up to now is     2143.2 secs

     total energy              =    -448.66290901 Ry
     Harris-Foulkes estimate   =    -448.68641056 Ry
     estimated scf accuracy    <       0.07748382 Ry

     iteration #  8     ecut=    30.00 Ry     beta= 0.70
     Davidson diagonalization with overlap
     ethr =  3.87E-05,  avg # of iterations =  2.0

     total cpu time spent up to now is     2251.4 secs

     total energy              =    -448.67454002 Ry
     Harris-Foulkes estimate   =    -448.67566324 Ry
     estimated scf accuracy    <       0.00272356 Ry

     iteration #  9     ecut=    30.00 Ry     beta= 0.70
     Davidson diagonalization with overlap
     ethr =  1.36E-06,  avg # of iterations =  8.3

     total cpu time spent up to now is     2456.1 secs

     total energy              =    -448.67547179 Ry
     Harris-Foulkes estimate   =    -448.67589953 Ry
     estimated scf accuracy    <       0.00117040 Ry

     iteration # 10     ecut=    30.00 Ry     beta= 0.70
     Davidson diagonalization with overlap
     ethr =  5.85E-07,  avg # of iterations =  2.0

     total cpu time spent up to now is     2569.2 secs

     total energy              =    -448.67562699 Ry
     Harris-Foulkes estimate   =    -448.67574457 Ry
     estimated scf accuracy    <       0.00042870 Ry

     iteration # 11     ecut=    30.00 Ry     beta= 0.70
     Davidson diagonalization with overlap
     ethr =  2.14E-07,  avg # of iterations =  2.0

     total cpu time spent up to now is     2677.3 secs

     total energy              =    -448.67563246 Ry
     Harris-Foulkes estimate   =    -448.67571545 Ry
     estimated scf accuracy    <       0.00022419 Ry

     iteration # 12     ecut=    30.00 Ry     beta= 0.70
     Davidson diagonalization with overlap
     ethr =  1.12E-07,  avg # of iterations =  2.0

     total cpu time spent up to now is     2800.2 secs

     End of self-consistent calculation

          k = 0.0000 0.0000 0.0000 ( 48515 PWs)   bands (ev):

   -15.9294 -14.9641 -14.9317 -14.9317 -14.8605 -14.8605 -14.8190 -13.2198
   -13.1951 -13.1156 -13.1156 -13.0874 -13.0874 -12.8796 -12.8796 -12.8691
   -12.0312 -10.9142 -10.9142 -10.9110 -10.8892 -10.8889 -10.8889  -9.9591
    -9.9591  -9.9561  -9.1515  -9.1495  -9.0587  -9.0587  -8.7419  -8.7419
    -8.6914  -8.6914  -8.6597  -8.6563  -6.9597  -6.9597  -6.9462  -6.9334
    -6.9275  -6.9274  -6.7336  -6.7335  -6.6773  -6.6611  -6.6611  -6.6568
    -6.5590  -6.5187  -6.5186  -6.4734  -6.4733  -6.4541  -6.1833  -5.0324
    -5.0038  -5.0038  -4.9417  -4.9417  -4.9097  -4.8204  -4.8202  -4.8201
    -4.6001  -4.6001  -4.1616  -4.1479  -4.1479  -4.1197  -4.1197  -4.1028
    -3.9525  -3.2780  -3.2700  -3.2290  -3.2288  -2.9998  -2.9998  -2.8661
    -2.8661  -2.8186  -2.8162  -2.8162  -2.6306  -2.6045  -2.6045  -2.5777
    -2.5776  -2.5752  -2.3373  -2.3372  -2.3309  -2.2464  -2.2419  -2.2419
    -1.4051  -1.4050  -0.7279  -0.7279  -0.6429  -0.6059  -0.6011  -0.1446
    -0.1445  -0.1232   0.3597   0.3742   0.3742   0.6299   0.6299   0.7187
     1.0812   1.0812   1.1414   1.1967   1.4246   1.4247   1.4386   1.6767
     1.6770   1.6770   1.7652   1.7652

          k = 0.0000 0.3849 0.0000 ( 48609 PWs)   bands (ev):

   -15.8153 -15.4627 -15.1207 -15.1094 -14.4671 -14.4610 -14.1449 -13.8524
   -13.8489 -13.3398 -13.1069 -13.0808 -12.9572 -12.9309 -12.5268 -12.5232
   -11.9004 -11.5132 -11.1372 -11.1357 -10.4487 -10.4486 -10.2177  -9.8217
    -9.8206  -9.7193  -9.7160  -9.3621  -9.2966  -9.2749  -9.1308  -9.1285
    -8.3309  -8.3305  -8.0773  -8.0138  -8.0110  -7.9941  -7.6239  -7.6233
    -7.2898  -7.2881  -7.2238  -7.2191  -6.4153  -6.4139  -6.1545  -6.1503
    -6.0889  -5.9075  -5.8306  -5.8246  -5.7231  -5.7148  -5.2494  -5.2473
    -5.1901  -5.1677  -5.1335  -4.9883  -4.7410  -4.7018  -4.7017  -4.5395
    -4.5378  -4.4776  -4.2866  -4.2850  -4.2409  -4.2079  -4.2060  -4.1554
    -3.8395  -3.8372  -3.7415  -3.7289  -3.3859  -3.3847  -3.3695  -3.3014
    -3.0317  -3.0246  -2.9360  -2.9067  -2.8602  -2.7694  -2.7450  -2.7015
    -2.4581  -2.4036  -2.4025  -2.2864  -2.2743  -2.1669  -1.8456  -1.8446
    -1.7999  -1.6582  -1.2635  -1.2583  -0.3444  -0.2604  -0.0918  -0.0150
     0.0410   0.4970   0.5137   0.5644   0.6442   0.7644   1.0365   1.0383
     1.1440   1.2076   1.2095   1.2873   1.5218   1.5719   1.6432   1.6830
     1.7362   1.8501   1.8634   2.1601

          k = 0.3333 0.5774 0.0000 ( 48552 PWs)   bands (ev):

   -15.6456 -15.5626 -15.5212 -14.5696 -14.5678 -14.5646 -13.7409 -13.7053
   -13.7018 -13.6314 -13.6280 -13.5968 -12.7301 -12.6476 -12.6019 -12.2944
   -11.6515 -11.6432 -11.6276 -10.5457 -10.5325 -10.5299  -9.9730  -9.9531
    -9.9480  -9.7099  -9.6708  -9.6374  -9.2672  -8.7274  -8.7199  -8.7023
    -8.6714  -8.6604  -8.6436  -8.3057  -8.2998  -8.2880  -7.7447  -7.3896
    -7.3836  -7.3772  -6.8541  -6.8506  -6.8503  -6.3163  -6.2941  -6.2543
    -5.9524  -5.8829  -5.8824  -5.1206  -5.1142  -5.0858  -5.0684  -5.0472
    -5.0443  -4.9980  -4.9943  -4.9933  -4.8803  -4.8626  -4.8593  -4.6415
    -4.6396  -4.6358  -4.5789  -4.5540  -4.5388  -3.8352  -3.8074  -3.7994
    -3.7627  -3.7505  -3.7475  -3.7200  -3.7035  -3.7027  -3.6700  -3.6610
    -3.6527  -3.3813  -3.3487  -3.3453  -2.7039  -2.7029  -2.7002  -2.5872
    -2.4432  -2.4000  -2.2134  -2.2082  -2.2066  -1.9709  -1.9107  -1.8967
    -1.8184  -1.4703  -1.4651  -1.4608  -0.3844  -0.2197  -0.1775  -0.0888
     0.1010   0.3664   0.7753   0.9978   1.1045   1.1703   1.1781   1.1824
     1.4134   1.4173   1.4262   1.4458   1.4530   1.4647   1.6399   1.7910
     1.8592   1.8634   1.9398   2.0078

     highest occupied, lowest unoccupied level (ev):    -0.7279   -0.6429

!    total energy              =    -448.67564271 Ry
     Harris-Foulkes estimate   =    -448.67568285 Ry
     estimated scf accuracy    <       0.00004772 Ry

     convergence has been achieved in  12 iterations

     Using ACE for calculation of exact exchange

     EXX grid:   388955 G-vectors     FFT dimensions: (  81,  81, 135)

     EXX: now go back to refine exchange calculation

     total cpu time spent up to now is     6066.4 secs

     Self-consistent Calculation

     iteration #  1     ecut=    30.00 Ry     beta= 0.70
     Davidson diagonalization with overlap
     ethr =  1.12E-07,  avg # of iterations =  7.7

     total cpu time spent up to now is     6614.4 secs

     total energy              =    -448.45582494 Ry
     Harris-Foulkes estimate   =    -448.45949773 Ry
     estimated scf accuracy    <       0.00743886 Ry

     iteration #  2     ecut=    30.00 Ry     beta= 0.70
     Davidson diagonalization with overlap
     ethr =  3.72E-06,  avg # of iterations =  4.0

     total cpu time spent up to now is     6882.9 secs

     total energy              =    -448.45525376 Ry
     Harris-Foulkes estimate   =    -448.45880525 Ry
     estimated scf accuracy    <       0.00636915 Ry

     iteration #  3     ecut=    30.00 Ry     beta= 0.70
     Davidson diagonalization with overlap
     ethr =  3.18E-06,  avg # of iterations =  4.0

     total cpu time spent up to now is     7147.5 secs

     total energy              =    -448.45673194 Ry
     Harris-Foulkes estimate   =    -448.45788146 Ry
     estimated scf accuracy    <       0.00281045 Ry

     iteration #  4     ecut=    30.00 Ry     beta= 0.70
     Davidson diagonalization with overlap
     ethr =  1.41E-06,  avg # of iterations =  2.0

     total cpu time spent up to now is     7353.7 secs

     total energy              =    -448.45719773 Ry
     Harris-Foulkes estimate   =    -448.45748930 Ry
     estimated scf accuracy    <       0.00069698 Ry

     iteration #  5     ecut=    30.00 Ry     beta= 0.70
     Davidson diagonalization with overlap
     ethr =  3.48E-07,  avg # of iterations =  2.0

     total cpu time spent up to now is     7555.3 secs

     End of self-consistent calculation

          k = 0.0000 0.0000 0.0000 ( 48515 PWs)   bands (ev):

   -18.0035 -16.9458 -16.9135 -16.9135 -16.8456 -16.8456 -16.8051 -15.0598
   -15.0384 -14.9618 -14.9618 -14.9322 -14.9322 -14.7209 -14.7209 -14.7141
   -13.5728 -12.3066 -12.3066 -12.3016 -12.2891 -12.2868 -12.2868 -11.3083
   -11.3083 -11.3051 -10.3340 -10.3316 -10.2693 -10.2693  -9.9889  -9.9889
    -9.9363  -9.9363  -9.8882  -9.8856  -7.9167  -7.9167  -7.8949  -7.8734
    -7.8687  -7.8686  -7.7464  -7.7463  -7.7098  -7.6787  -7.6787  -7.6687
    -7.5960  -7.5569  -7.5568  -7.5122  -7.5121  -7.4931  -7.1567  -5.8092
    -5.7818  -5.7818  -5.7281  -5.7281  -5.7061  -5.7056  -5.7055  -5.6993
    -5.2578  -5.2578  -4.9766  -4.9624  -4.9624  -4.9331  -4.9331  -4.9172
    -4.5917  -3.9487  -3.9485  -3.7554  -3.7554  -3.5127  -3.5127  -3.3705
    -3.3705  -3.3120  -3.3097  -3.3097  -3.1569  -3.1277  -3.1276  -3.0974
    -3.0938  -3.0937  -2.7012  -2.7011  -2.7011  -2.6048  -2.6047  -2.6045
    -1.8376  -1.8375  -0.9492  -0.9492  -0.5766  -0.5302  -0.3652   0.0027
     0.0027   0.0255   0.5437   0.5450   0.5450   0.8706   0.8706   0.9555
     1.3669   1.3669   1.4096   1.4525   1.7788   1.7825   1.7826   2.0356
     2.0356   2.0719   2.1450   2.1451

          k = 0.0000 0.3849 0.0000 ( 48609 PWs)   bands (ev):

   -17.8871 -17.5063 -17.1312 -17.1205 -16.4140 -16.4091 -16.0658 -15.7534
   -15.7509 -15.2072 -14.9582 -14.9311 -14.8042 -14.7782 -14.3462 -14.3423
   -13.4151 -12.9936 -12.5574 -12.5560 -11.7759 -11.7754 -11.5237 -11.1069
   -11.1057 -11.0538 -11.0505 -10.6683 -10.5797 -10.5636 -10.4231 -10.4211
    -9.4064  -9.4058  -9.2560  -9.2012  -9.1988  -9.1256  -8.6660  -8.6651
    -8.4151  -8.4132  -8.3188  -8.3130  -7.2567  -7.2537  -7.1121  -7.1058
    -7.0558  -6.7974  -6.7876  -6.7587  -6.6454  -6.6332  -6.1487  -6.1468
    -5.9933  -5.9931  -5.8584  -5.8092  -5.6213  -5.5486  -5.5472  -5.3453
    -5.2661  -5.2567  -4.9966  -4.9927  -4.9082  -4.8838  -4.8822  -4.7884
    -4.4916  -4.4784  -4.4486  -4.4478  -4.0994  -3.9194  -3.9177  -3.8628
    -3.5428  -3.5342  -3.4413  -3.4356  -3.3971  -3.2383  -3.2112  -3.1547
    -2.8850  -2.7914  -2.7884  -2.7257  -2.7095  -2.6139  -2.1438  -2.1329
    -2.0964  -2.0701  -1.4738  -1.4679  -0.2853  -0.1977  -0.0149   0.0961
     0.1520   0.7151   0.7273   0.8120   0.8616   0.9927   1.3276   1.3326
     1.4397   1.5051   1.5141   1.5533   1.7980   1.8659   1.9381   1.9872
     2.0652   2.1942   2.2162   2.6084

          k = 0.3333 0.5774 0.0000 ( 48552 PWs)   bands (ev):

   -17.6985 -17.6208 -17.5744 -16.5309 -16.5299 -16.5261 -15.6310 -15.5953
   -15.5909 -15.5207 -15.5165 -15.4836 -14.5676 -14.4855 -14.4371 -14.1086
   -13.1321 -13.1224 -13.1139 -11.8953 -11.8798 -11.8750 -11.2569 -11.2404
   -11.2335 -11.0285 -10.9893 -10.9562 -10.5306  -9.9914  -9.9855  -9.9632
    -9.9367  -9.9198  -9.9049  -9.4086  -9.4069  -9.3935  -8.9046  -8.3619
    -8.3474  -8.3462  -7.9292  -7.9261  -7.9259  -7.2906  -7.2716  -7.2278
    -6.8671  -6.8007  -6.7946  -6.0026  -5.9950  -5.9674  -5.9435  -5.9155
    -5.9093  -5.8571  -5.8528  -5.8512  -5.5197  -5.5172  -5.5171  -5.3898
    -5.3866  -5.3865  -5.3761  -5.3571  -5.3473  -4.4640  -4.4496  -4.4444
    -4.4207  -4.3960  -4.3952  -4.3101  -4.2856  -4.2801  -4.2737  -4.2581
    -4.2425  -3.9603  -3.9330  -3.9271  -3.1537  -3.1534  -3.1469  -3.0752
    -2.9127  -2.8870  -2.6341  -2.6254  -2.6235  -2.4010  -2.2219  -2.1888
    -2.1257  -1.7152  -1.7145  -1.7101  -0.3242  -0.1319  -0.1042  -0.0257
     0.2681   0.5495   1.0630   1.2681   1.3782   1.4507   1.4611   1.4647
     1.6758   1.6848   1.7093   1.7099   1.7147   1.7296   1.9726   2.1541
     2.1916   2.2319   2.2854   2.3931

     highest occupied, lowest unoccupied level (ev):    -0.9492   -0.5766

!    total energy              =    -448.45729617 Ry
     Harris-Foulkes estimate   =    -448.45735595 Ry
     estimated scf accuracy    <       0.00006589 Ry

     convergence has been achieved in   5 iterations

     Using ACE for calculation of exact exchange

     total energy              =    -448.46179878 Ry
     Harris-Foulkes estimate   =    -448.46185856 Ry
     est. exchange err (dexx)  =       0.00450262 Ry
     - averaged Fock potential =      48.75271535 Ry
     + Fock energy (ACE)       =     -24.40733089 Ry

     EXX: now go back to refine exchange calculation

     total cpu time spent up to now is    11694.0 secs

     Self-consistent Calculation

     iteration #  1     ecut=    30.00 Ry     beta= 0.70
     Davidson diagonalization with overlap
     ethr =  3.48E-07,  avg # of iterations =  4.0

     total cpu time spent up to now is    12011.0 secs

     total energy              =    -448.46195485 Ry
     Harris-Foulkes estimate   =    -448.46274062 Ry
     estimated scf accuracy    <       0.00098307 Ry

     iteration #  2     ecut=    30.00 Ry     beta= 0.70
     Davidson diagonalization with overlap
     ethr =  4.92E-07,  avg # of iterations =  3.0

     total cpu time spent up to now is    12289.7 secs

     total energy              =    -448.46158287 Ry
     Harris-Foulkes estimate   =    -448.46365919 Ry
     estimated scf accuracy    <       0.00621360 Ry

     iteration #  3     ecut=    30.00 Ry     beta= 0.70
     Davidson diagonalization with overlap
     ethr =  4.92E-07,  avg # of iterations =  3.0

     total cpu time spent up to now is    12529.1 secs

     End of self-consistent calculation

          k = 0.0000 0.0000 0.0000 ( 48515 PWs)   bands (ev):

   -17.9952 -16.9383 -16.9057 -16.9057 -16.8365 -16.8365 -16.7958 -15.0564
   -15.0332 -14.9526 -14.9526 -14.9249 -14.9249 -14.7156 -14.7156 -14.7067
   -13.5691 -12.3078 -12.3058 -12.3058 -12.2824 -12.2824 -12.2775 -11.2987
   -11.2986 -11.2949 -10.3225 -10.3201 -10.2719 -10.2719  -9.9822  -9.9822
    -9.9269  -9.9269  -9.8812  -9.8784  -7.9097  -7.9096  -7.8837  -7.8729
    -7.8644  -7.8644  -7.7419  -7.7419  -7.7008  -7.6749  -7.6749  -7.6595
    -7.5908  -7.5515  -7.5514  -7.5052  -7.5051  -7.4851  -7.1485  -5.8032
    -5.7752  -5.7752  -5.7204  -5.7204  -5.7083  -5.7078  -5.7078  -5.6905
    -5.2655  -5.2655  -4.9789  -4.9649  -4.9648  -4.9347  -4.9346  -4.9185
    -4.5888  -3.9521  -3.9519  -3.7518  -3.7517  -3.5154  -3.5154  -3.3707
    -3.3707  -3.3128  -3.3128  -3.3128  -3.1740  -3.1444  -3.1443  -3.1094
    -3.1036  -3.1035  -2.7077  -2.7013  -2.7012  -2.6113  -2.6112  -2.6051
    -1.8578  -1.8576  -0.9784  -0.9784  -0.5463  -0.4986  -0.3355   0.0152
     0.0152   0.0422   0.5536   0.5562   0.5562   0.8890   0.8891   0.9708
     1.3792   1.3792   1.4172   1.4628   1.7923   1.7946   1.7946   2.0478
     2.0479   2.0878   2.1569   2.1569

          k = 0.0000 0.3849 0.0000 ( 48609 PWs)   bands (ev):

   -17.8793 -17.4978 -17.1232 -17.1121 -16.4071 -16.4017 -16.0586 -15.7468
   -15.7439 -15.2007 -14.9543 -14.9237 -14.7998 -14.7702 -14.3410 -14.3371
   -13.4116 -12.9908 -12.5546 -12.5528 -11.7722 -11.7722 -11.5199 -11.1034
   -11.1020 -11.0444 -11.0405 -10.6600 -10.5700 -10.5528 -10.4136 -10.4110
    -9.4010  -9.4005  -9.2474  -9.1942  -9.1918  -9.1208  -8.6607  -8.6597
    -8.4078  -8.4061  -8.3115  -8.3056  -7.2512  -7.2479  -7.1100  -7.1033
    -7.0485  -6.7929  -6.7842  -6.7527  -6.6435  -6.6307  -6.1496  -6.1475
    -5.9871  -5.9871  -5.8551  -5.8059  -5.6236  -5.5496  -5.5481  -5.3465
    -5.2620  -5.2526  -4.9987  -4.9948  -4.9049  -4.8890  -4.8865  -4.7828
    -4.4949  -4.4802  -4.4490  -4.4479  -4.1028  -3.9275  -3.9261  -3.8632
    -3.5455  -3.5392  -3.4533  -3.4409  -3.4028  -3.2439  -3.2149  -3.1579
    -2.8884  -2.7901  -2.7865  -2.7332  -2.7169  -2.6285  -2.1468  -2.1315
    -2.0940  -2.0809  -1.4736  -1.4676  -0.2764  -0.1913  -0.0069   0.1049
     0.1595   0.7301   0.7406   0.8280   0.8719   1.0092   1.3440   1.3497
     1.4537   1.5201   1.5269   1.5621   1.8080   1.8744   1.9470   1.9963
     2.0746   2.2048   2.2268   2.6169

          k = 0.3333 0.5774 0.0000 ( 48552 PWs)   bands (ev):

   -17.6941 -17.6078 -17.5671 -16.5234 -16.5224 -16.5191 -15.6270 -15.5891
   -15.5860 -15.5124 -15.5093 -15.4749 -14.5654 -14.4762 -14.4331 -14.1043
   -13.1311 -13.1241 -13.1036 -11.8901 -11.8761 -11.8743 -11.2567 -11.2343
   -11.2280 -11.0192 -10.9810 -10.9434 -10.5204  -9.9834  -9.9774  -9.9546
    -9.9265  -9.9094  -9.8937  -9.4058  -9.4020  -9.3879  -8.8953  -8.3552
    -8.3458  -8.3384  -7.9237  -7.9204  -7.9203  -7.2908  -7.2678  -7.2254
    -6.8635  -6.7887  -6.7884  -6.0046  -5.9972  -5.9688  -5.9441  -5.9153
    -5.9102  -5.8560  -5.8532  -5.8510  -5.5160  -5.5123  -5.5092  -5.3856
    -5.3842  -5.3823  -5.3746  -5.3582  -5.3460  -4.4662  -4.4516  -4.4500
    -4.4199  -4.3968  -4.3958  -4.3116  -4.2843  -4.2826  -4.2797  -4.2640
    -4.2508  -3.9653  -3.9340  -3.9322  -3.1561  -3.1513  -3.1500  -3.0838
    -2.9150  -2.8951  -2.6422  -2.6374  -2.6352  -2.4128  -2.2189  -2.1857
    -2.1277  -1.7148  -1.7119  -1.7079  -0.3138  -0.1270  -0.0944  -0.0213
     0.2818   0.5613   1.0815   1.2847   1.3895   1.4587   1.4748   1.4758
     1.6832   1.7002   1.7170   1.7209   1.7213   1.7388   1.9850   2.1633
     2.1999   2.2397   2.2968   2.4056

     highest occupied, lowest unoccupied level (ev):    -0.9784   -0.5463

!    total energy              =    -448.46251801 Ry
     Harris-Foulkes estimate   =    -448.46255446 Ry
     estimated scf accuracy    <       0.00004146 Ry

     convergence has been achieved in   3 iterations

     Using ACE for calculation of exact exchange

     total energy              =    -448.46265401 Ry
     Harris-Foulkes estimate   =    -448.46269047 Ry
     est. exchange err (dexx)  =       0.00013601 Ry
     - averaged Fock potential =      48.82477249 Ry
     + Fock energy (ACE)       =     -24.41757761 Ry

     EXX: now go back to refine exchange calculation

     total cpu time spent up to now is    16890.6 secs

     Self-consistent Calculation

     iteration #  1     ecut=    30.00 Ry     beta= 0.70
     Davidson diagonalization with overlap
     ethr =  4.92E-07,  avg # of iterations =  2.7

     total cpu time spent up to now is    17169.1 secs

     total energy              =    -448.46239767 Ry
     Harris-Foulkes estimate   =    -448.46280761 Ry
     estimated scf accuracy    <       0.00047918 Ry

     iteration #  2     ecut=    30.00 Ry     beta= 0.70
     Davidson diagonalization with overlap
     ethr =  2.40E-07,  avg # of iterations =  3.0

     total cpu time spent up to now is    17425.1 secs

     total energy              =    -448.46222883 Ry
     Harris-Foulkes estimate   =    -448.46328210 Ry
     estimated scf accuracy    <       0.00314971 Ry

     iteration #  3     ecut=    30.00 Ry     beta= 0.70
     Davidson diagonalization with overlap
     ethr =  2.40E-07,  avg # of iterations =  3.0

     total cpu time spent up to now is    17571.6 secs

     End of self-consistent calculation

          k = 0.0000 0.0000 0.0000 ( 48515 PWs)   bands (ev):

   -17.9940 -16.9363 -16.9039 -16.9039 -16.8363 -16.8363 -16.7960 -15.0523
   -15.0304 -14.9540 -14.9539 -14.9246 -14.9246 -14.7146 -14.7145 -14.7075
   -13.5691 -12.3043 -12.3043 -12.3016 -12.2846 -12.2846 -12.2838 -11.2976
   -11.2975 -11.2942 -10.3202 -10.3174 -10.2745 -10.2745  -9.9808  -9.9808
    -9.9282  -9.9282  -9.8797  -9.8770  -7.9103  -7.9102  -7.8862  -7.8693
    -7.8628  -7.8628  -7.7409  -7.7409  -7.7031  -7.6735  -7.6735  -7.6624
    -7.5892  -7.5505  -7.5505  -7.5056  -7.5056  -7.4862  -7.1471  -5.8004
    -5.7734  -5.7734  -5.7209  -5.7209  -5.7091  -5.7086  -5.7086  -5.6917
    -5.2670  -5.2670  -4.9795  -4.9654  -4.9654  -4.9359  -4.9358  -4.9198
    -4.5896  -3.9533  -3.9531  -3.7500  -3.7487  -3.5169  -3.5169  -3.3742
    -3.3742  -3.3147  -3.3130  -3.3129  -3.1747  -3.1452  -3.1452  -3.1139
    -3.1083  -3.1082  -2.7092  -2.7050  -2.7049  -2.6116  -2.6116  -2.6072
    -1.8616  -1.8615  -0.9883  -0.9883  -0.5378  -0.4902  -0.3323   0.0180
     0.0180   0.0439   0.5574   0.5574   0.5575   0.8881   0.8881   0.9709
     1.3820   1.3821   1.4191   1.4611   1.7945   1.7966   1.7966   2.0476
     2.0476   2.0916   2.1576   2.1576

          k = 0.0000 0.3849 0.0000 ( 48609 PWs)   bands (ev):

   -17.8780 -17.4969 -17.1222 -17.1114 -16.4062 -16.4010 -16.0582 -15.7459
   -15.7431 -15.2004 -14.9523 -14.9243 -14.7984 -14.7714 -14.3409 -14.3370
   -13.4118 -12.9911 -12.5550 -12.5532 -11.7726 -11.7720 -11.5206 -11.1037
   -11.1022 -11.0431 -11.0397 -10.6583 -10.5690 -10.5526 -10.4127 -10.4106
    -9.4013  -9.4005  -9.2466  -9.1938  -9.1914  -9.1209  -8.6608  -8.6597
    -8.4072  -8.4053  -8.3112  -8.3054  -7.2513  -7.2481  -7.1102  -7.1038
    -7.0476  -6.7928  -6.7843  -6.7527  -6.6443  -6.6314  -6.1505  -6.1485
    -5.9867  -5.9867  -5.8557  -5.8067  -5.6244  -5.5505  -5.5491  -5.3476
    -5.2616  -5.2525  -5.0000  -4.9962  -4.9055  -4.8908  -4.8878  -4.7829
    -4.4961  -4.4816  -4.4491  -4.4484  -4.1042  -3.9299  -3.9284  -3.8647
    -3.5484  -3.5402  -3.4556  -3.4419  -3.4030  -3.2465  -3.2185  -3.1594
    -2.8899  -2.7905  -2.7869  -2.7361  -2.7198  -2.6319  -2.1483  -2.1308
    -2.0958  -2.0833  -1.4740  -1.4682  -0.2756  -0.1903  -0.0064   0.1058
     0.1603   0.7323   0.7414   0.8292   0.8749   1.0090   1.3460   1.3512
     1.4554   1.5210   1.5296   1.5629   1.8082   1.8764   1.9486   1.9981
     2.0762   2.2062   2.2285   2.6122

          k = 0.3333 0.5774 0.0000 ( 48552 PWs)   bands (ev):

   -17.6905 -17.6104 -17.5652 -16.5227 -16.5217 -16.5180 -15.6248 -15.5885
   -15.5842 -15.5131 -15.5089 -15.4758 -14.5631 -14.4792 -14.4315 -14.1042
   -13.1295 -13.1209 -13.1093 -11.8919 -11.8769 -11.8725 -11.2544 -11.2362
   -11.2297 -11.0177 -10.9786 -10.9443 -10.5192  -9.9818  -9.9759  -9.9532
    -9.9264  -9.9093  -9.8943  -9.4047  -9.4024  -9.3889  -8.8944  -8.3565
    -8.3431  -8.3403  -7.9235  -7.9203  -7.9202  -7.2896  -7.2697  -7.2262
    -6.8605  -6.7914  -6.7867  -6.0048  -5.9971  -5.9692  -5.9450  -5.9168
    -5.9107  -5.8583  -5.8543  -5.8527  -5.5152  -5.5126  -5.5113  -5.3853
    -5.3849  -5.3824  -5.3746  -5.3580  -5.3480  -4.4687  -4.4499  -4.4497
    -4.4203  -4.3994  -4.3962  -4.3127  -4.2880  -4.2875  -4.2791  -4.2650
    -4.2517  -3.9658  -3.9374  -3.9326  -3.1564  -3.1545  -3.1492  -3.0843
    -2.9201  -2.8960  -2.6471  -2.6390  -2.6375  -2.4161  -2.2203  -2.1867
    -2.1270  -1.7136  -1.7130  -1.7090  -0.3137  -0.1277  -0.0918  -0.0207
     0.2828   0.5621   1.0849   1.2858   1.3913   1.4616   1.4735   1.4779
     1.6855   1.6969   1.7189   1.7215   1.7243   1.7406   1.9875   2.1630
     2.1994   2.2408   2.2976   2.4068

     highest occupied, lowest unoccupied level (ev):    -0.9883   -0.5378

!    total energy              =    -448.46280916 Ry
     Harris-Foulkes estimate   =    -448.46271675 Ry
     estimated scf accuracy    <       0.00002625 Ry

     convergence has been achieved in   3 iterations

     Using ACE for calculation of exact exchange

!!   total energy              =    -448.46281778 Ry
     Harris-Foulkes estimate   =    -448.46272537 Ry
     est. exchange err (dexx)  =       0.00000862 Ry
     - averaged Fock potential =      48.83790960 Ry
     + Fock energy (ACE)       =     -24.42034061 Ry

     EXX self-consistency reached

     Forces acting on atoms (cartesian axes, Ry/au):

     atom    1 type  1   force =     0.00000000   -0.00000000    0.00329386
     atom    2 type  1   force =     0.00000000   -0.00087353   -0.00021192
     atom    3 type  1   force =    -0.00200256    0.00492215    0.00015849
     atom    4 type  1   force =    -0.00182049   -0.00105106    0.00304024
     atom    5 type  1   force =     0.00326143   -0.00419534    0.00015849
     atom    6 type  1   force =    -0.00075650    0.00043677   -0.00021192
     atom    7 type  1   force =     0.00526399   -0.00072681    0.00015849
     atom    8 type  1   force =     0.00103321    0.00059652    0.00169188
     atom    9 type  1   force =     0.00200256    0.00492215    0.00015849
     atom   10 type  1   force =     0.00182049   -0.00105106    0.00304024
     atom   11 type  1   force =     0.00000000   -0.00000000   -0.00323662
     atom   12 type  1   force =     0.00000000    0.00210212    0.00304024
     atom   13 type  1   force =    -0.00526399   -0.00072681    0.00015849
     atom   14 type  1   force =    -0.00103321    0.00059652    0.00169188
     atom   15 type  1   force =     0.00000000    0.00000000   -0.00209235
     atom   16 type  1   force =     0.00000000   -0.00119305    0.00169188
     atom   17 type  1   force =    -0.00326143   -0.00419534    0.00015849
     atom   18 type  1   force =     0.00075650    0.00043677   -0.00021192
     atom   19 type  3   force =     0.00000000   -0.00000000    0.00358296
     atom   20 type  2   force =     0.00000000    0.00466641   -0.01076619
     atom   21 type  3   force =     0.00438902   -0.01083801    0.00360189
     atom   22 type  2   force =     0.00208288    0.00485931   -0.00497611
     atom   23 type  3   force =    -0.00419234   -0.00242045    0.00656072
     atom   24 type  2   force =     0.00524973   -0.00062583   -0.00497611
     atom   25 type  3   force =    -0.00719148    0.00922001    0.00360189
     atom   26 type  2   force =     0.00404123   -0.00233320   -0.01076619
     atom   27 type  3   force =    -0.01158050    0.00161800    0.00360189
     atom   28 type  2   force =     0.00178252    0.00102914   -0.00677580
     atom   29 type  3   force =    -0.00438902   -0.01083801    0.00360189
     atom   30 type  2   force =    -0.00208288    0.00485931   -0.00497611
     atom   31 type  3   force =     0.00000000   -0.00877112    0.00297270
     atom   32 type  2   force =     0.00000000   -0.00000000   -0.00167617
     atom   33 type  3   force =    -0.00759601    0.00438556    0.00297270
     atom   34 type  2   force =     0.00316685   -0.00423348   -0.00497611
     atom   35 type  3   force =    -0.00000000    0.00484090    0.00656072
     atom   36 type  2   force =     0.00000000   -0.00304716   -0.00350561
     atom   37 type  3   force =    -0.00369604   -0.00213391    0.00946823
     atom   38 type  2   force =    -0.00263891    0.00152358   -0.00350561
     atom   39 type  3   force =     0.00419234   -0.00242045    0.00656072
     atom   40 type  2   force =    -0.00524973   -0.00062583   -0.00497611
     atom   41 type  3   force =     0.00759601    0.00438556    0.00297270
     atom   42 type  2   force =    -0.00316685   -0.00423348   -0.00497611
     atom   43 type  3   force =     0.01158050    0.00161800    0.00360189
     atom   44 type  2   force =    -0.00178252    0.00102914   -0.00677580
     atom   45 type  3   force =     0.00369604   -0.00213391    0.00946823
     atom   46 type  2   force =     0.00263891    0.00152358   -0.00350561
     atom   47 type  3   force =     0.00000000    0.00426782    0.00946823
     atom   48 type  2   force =     0.00000000   -0.00205827   -0.00677580
     atom   49 type  3   force =     0.00719148    0.00922001    0.00360189
     atom   50 type  2   force =    -0.00404123   -0.00233320   -0.01076619

     Total force =     0.053761     Total SCF correction =     0.008945
     SCF correction compared to forces is large: reduce conv_thr to get better values


     Computing stress (Cartesian axis) and pressure

          total   stress  (Ry/bohr**3)                   (kbar)     P=  -15.59
  -0.00010561   0.00000000   0.00000000        -15.54      0.00      0.00
   0.00000000  -0.00010561  -0.00000000          0.00    -15.54     -0.00
   0.00000000  -0.00000000  -0.00010665          0.00     -0.00    -15.69


     Writing output data file gesic1-hse.save/

     init_run     :    653.91s CPU    656.42s WALL (       1 calls)
     electrons    :   5105.26s CPU   5149.05s WALL (       4 calls)
     forces       :     82.77s CPU     88.32s WALL (       1 calls)
     stress       :   3181.50s CPU   3198.32s WALL (       1 calls)

     Called by init_run:
     wfcinit      :    650.70s CPU    653.10s WALL (       1 calls)
     potinit      :      1.45s CPU      1.51s WALL (       1 calls)
     hinit0       :      1.46s CPU      1.48s WALL (       1 calls)

     Called by electrons:
     c_bands      :   4810.73s CPU   4846.63s WALL (      23 calls)
     sum_band     :    265.51s CPU    266.59s WALL (      23 calls)
     v_of_rho     :     24.95s CPU     26.60s WALL (      25 calls)
     mix_rho      :      2.75s CPU      3.72s WALL (      23 calls)

     Called by c_bands:
     init_us_2    :     27.61s CPU     45.28s WALL (     147 calls)
     cegterg      :   4716.80s CPU   4738.57s WALL (      69 calls)

     Called by sum_band:

     Called by *egterg:
     h_psi        :   3732.87s CPU   3745.36s WALL (     344 calls)
     g_psi        :      6.45s CPU      6.46s WALL (     272 calls)
     cdiaghg      :     53.81s CPU     53.98s WALL (     332 calls)

     Called by h_psi:
     h_psi:pot    :   3510.14s CPU   3512.41s WALL (     344 calls)
     h_psi:calbec :   1034.25s CPU   1034.54s WALL (     344 calls)
     vloc_psi     :   1536.28s CPU   1538.02s WALL (     344 calls)
     add_vuspsi   :    939.59s CPU    939.84s WALL (     344 calls)

     General routines
     calbec       :   1287.55s CPU   1319.84s WALL (     561 calls)
     fft          :      8.40s CPU      8.41s WALL (     253 calls)
     ffts         :      0.79s CPU      0.79s WALL (      23 calls)
     fftw         :   1504.24s CPU   1505.11s WALL (   61804 calls)
     fftc         :  13536.76s CPU  13557.86s WALL (  406224 calls)
     fftcw        :    117.66s CPU    118.68s WALL (    4836 calls)

     Parallel routines

     EXX routines
     exx_grid     :      0.00s CPU      0.00s WALL (       1 calls)
     exxinit      :     84.83s CPU    154.67s WALL (       4 calls)
     vexx         :  15313.75s CPU  15635.95s WALL (      12 calls)
     matcalc      :    170.37s CPU    202.32s WALL (     202 calls)
     aceupdate    :      7.60s CPU      8.89s WALL (      12 calls)
     vexxace      :    288.00s CPU    313.04s WALL (     169 calls)
     aceinit      :  15333.55s CPU  15671.18s WALL (      12 calls)

     PWSCF        :     6h48m CPU       48h 6m WALL

      57h

   This run was terminated on:   0: 1: 5  20Apr2020            

=------------------------------------------------------------------------------=
   JOB DONE.
=------------------------------------------------------------------------------=
