
     Program PWSCF v.6.3 starts on 19Apr2020 at 17: 3: 7 

     This program is part of the open-source Quantum ESPRESSO suite
     for quantum simulation of materials; please cite
         "P. Giannozzi et al., J. Phys.:Condens. Matter 21 395502 (2009);
         "P. Giannozzi et al., J. Phys.:Condens. Matter 29 465901 (2017);
          URL http://www.quantum-espresso.org", 
     in publications or presentations arising from this work. More details at
     http://www.quantum-espresso.org/quote

     Parallel version (MPI), running on     1 processors

     MPI processes distributed on     1 nodes
     Waiting for input...
     Reading input from standard input

     Current dimensions of program PWSCF are:
     Max number of different atomic species (ntypx) = 10
     Max number of k-points (npk) =  40000
     Max angular momentum in pseudopotentials (lmaxx) =  3

     IMPORTANT: XC functional enforced from input :
     Exchange-correlation      = HSE ( 1  4 12  4 0 0)
     EXX-fraction              =        0.25
     Any further DFT definition will be discarded
     Please, verify this is what you really want

               file Ge.pbe-mt_fhi.UPF: wavefunction(s)  4d 4f renormalized
               file C.pbe-mt_fhi.UPF: wavefunction(s)  4f renormalized
               file Si.pbe-mt_fhi.UPF: wavefunction(s)  4f renormalized

     -------------------------------------------------
     Parameters for Dispersion (Grimme-D2) Correction:
     -------------------------------------------------
       atom      VdW radius       C_6     

        Ge         3.264        593.221
        C          2.744         60.710
        Si         3.243        320.200

     Subspace diagonalization in iterative solution of the eigenvalue problem:
     a serial algorithm will be used

     EXX: setup a grid of 3 q-points centered on each k-point
     (k+q)-points:
   0.0000000   0.0000000   0.0000000         1    1
   0.0000000   0.3849002   0.0000000         2    1
   0.3333333   0.5773503   0.0000000         3    1

     G-vector sticks info
     --------------------
     sticks:   dense  smooth     PW     G-vecs:    dense   smooth      PW
     Sum        4429    4429   1177               388955   388955   53541



     bravais-lattice index     =            4
     lattice parameter (alat)  =      23.1302  a.u.
     unit-cell volume          =   17511.3678 (a.u.)^3
     number of atoms/cell      =           50
     number of atomic types    =            3
     number of electrons       =       200.00
     number of Kohn-Sham states=          124
     kinetic-energy cutoff     =      30.0000  Ry
     charge density cutoff     =     120.0000  Ry
     cutoff for Fock operator  =     120.0000  Ry
     convergence threshold     =      1.0E-04
     mixing beta               =       0.7000
     number of iterations used =            8  plain     mixing
     Exchange-correlation      = HSE ( 1  4 12  4 0 0)
     EXX-fraction              =        0.25

     celldm(1)=  23.130248  celldm(2)=   0.000000  celldm(3)=   1.633987
     celldm(4)=   0.000000  celldm(5)=   0.000000  celldm(6)=   0.000000

     crystal axes: (cart. coord. in units of alat)
               a(1) = (   1.000000   0.000000   0.000000 )  
               a(2) = (  -0.500000   0.866025   0.000000 )  
               a(3) = (   0.000000   0.000000   1.633987 )  

     reciprocal axes: (cart. coord. in units 2 pi/alat)
               b(1) = (  1.000000  0.577350 -0.000000 )  
               b(2) = (  0.000000  1.154701  0.000000 )  
               b(3) = (  0.000000 -0.000000  0.612000 )  


     PseudoPot. # 1 for Ge read from file:
     ./pseudo/Ge.pbe-mt_fhi.UPF
     MD5 check sum: b08ff19c3d362044f6e29226b459d86a
     Pseudo is Norm-conserving, Zval =  4.0
     Generated using FHI98PP, converted with fhi2upf.x v.5.0.2
     Using radial grid of  529 points,  3 beta functions with: 
                l(1) =   1
                l(2) =   2
                l(3) =   3

     PseudoPot. # 2 for C  read from file:
     ./pseudo/C.pbe-mt_fhi.UPF
     MD5 check sum: 058ca341f9d6d5327d9962fd88a91b65
     Pseudo is Norm-conserving, Zval =  4.0
     Generated using FHI98PP, converted with fhi2upf.x v.5.0.2
     Using radial grid of  461 points,  3 beta functions with: 
                l(1) =   0
                l(2) =   1
                l(3) =   3

     PseudoPot. # 3 for Si read from file:
     ./pseudo/Si.pbe-mt_fhi.UPF
     MD5 check sum: 259057c2adf9952f9ced37ae3d9e311d
     Pseudo is Norm-conserving, Zval =  4.0
     Generated using FHI98PP, converted with fhi2upf.x v.5.0.2
     Using radial grid of  495 points,  3 beta functions with: 
                l(1) =   0
                l(2) =   1
                l(3) =   3

     atomic species   valence    mass     pseudopotential
        Ge             4.00    72.59000     Ge( 1.00)
        C              4.00    12.01070     C ( 1.00)
        Si             4.00    28.08550     Si( 1.00)

      6 Sym. Ops. (no inversion) found



   Cartesian axes

     site n.     atom                  positions (alat units)
         1           Ge  tau(   1) = (   0.0000000   0.0000000   0.2634804  )
         2           Ge  tau(   2) = (   0.0000000   0.1924510   0.3183824  )
         3           Ge  tau(   3) = (  -0.1666667   0.2886751   0.2634804  )
         4           Ge  tau(   4) = (  -0.1666667   0.4811261   0.3183824  )
         5           Ge  tau(   5) = (  -0.3333333   0.5773503   0.2634804  )
         6           Ge  tau(   6) = (  -0.3333333   0.7698012   0.3183824  )
         7           Ge  tau(   7) = (   0.3333333   0.0000000   0.2634804  )
         8           Ge  tau(   8) = (   0.3333333   0.1924510   0.3183824  )
         9           Ge  tau(   9) = (   0.1666667   0.2886751   0.2634804  )
        10           Ge  tau(  10) = (   0.1666667   0.4811261   0.3183824  )
        11           Ge  tau(  11) = (   0.0000000   0.5773503   0.2634804  )
        12           Ge  tau(  12) = (   0.0000000   0.7698012   0.3183824  )
        13           Ge  tau(  13) = (   0.6666667   0.0000000   0.2634804  )
        14           Ge  tau(  14) = (   0.6666667   0.1924510   0.3183824  )
        15           Ge  tau(  15) = (   0.5000000   0.2886751   0.2634804  )
        16           Ge  tau(  16) = (   0.5000000   0.4811261   0.3183824  )
        17           Ge  tau(  17) = (   0.3333333   0.5773503   0.2634804  )
        18           Ge  tau(  18) = (   0.3333333   0.7698012   0.3183824  )
        19           C   tau(  19) = (   0.0000000   0.0000000   0.0000000  )
        20           Si  tau(  20) = (   0.0000000   0.1443382   0.0000000  )
        21           C   tau(  21) = (  -0.1250000   0.2165064   0.0000000  )
        22           Si  tau(  22) = (  -0.1250000   0.3608446   0.0000000  )
        23           C   tau(  23) = (  -0.2500000   0.4330127   0.0000000  )
        24           Si  tau(  24) = (  -0.2500000   0.5773509   0.0000000  )
        25           C   tau(  25) = (  -0.3750000   0.6495191   0.0000000  )
        26           Si  tau(  26) = (  -0.3750000   0.7938573   0.0000000  )
        27           C   tau(  27) = (   0.2500000   0.0000000   0.0000000  )
        28           Si  tau(  28) = (   0.2500000   0.1443382   0.0000000  )
        29           C   tau(  29) = (   0.1250000   0.2165064   0.0000000  )
        30           Si  tau(  30) = (   0.1250000   0.3608446   0.0000000  )
        31           C   tau(  31) = (   0.0000000   0.4330127   0.0000000  )
        32           Si  tau(  32) = (   0.0000000   0.5773509   0.0000000  )
        33           C   tau(  33) = (  -0.1250000   0.6495191   0.0000000  )
        34           Si  tau(  34) = (  -0.1250000   0.7938573   0.0000000  )
        35           C   tau(  35) = (   0.5000000   0.0000000   0.0000000  )
        36           Si  tau(  36) = (   0.5000000   0.1443382   0.0000000  )
        37           C   tau(  37) = (   0.3750000   0.2165064   0.0000000  )
        38           Si  tau(  38) = (   0.3750000   0.3608446   0.0000000  )
        39           C   tau(  39) = (   0.2500000   0.4330127   0.0000000  )
        40           Si  tau(  40) = (   0.2500000   0.5773509   0.0000000  )
        41           C   tau(  41) = (   0.1250000   0.6495191   0.0000000  )
        42           Si  tau(  42) = (   0.1250000   0.7938573   0.0000000  )
        43           C   tau(  43) = (   0.7500000   0.0000000   0.0000000  )
        44           Si  tau(  44) = (   0.7500000   0.1443382   0.0000000  )
        45           C   tau(  45) = (   0.6250000   0.2165064   0.0000000  )
        46           Si  tau(  46) = (   0.6250000   0.3608446   0.0000000  )
        47           C   tau(  47) = (   0.5000000   0.4330127   0.0000000  )
        48           Si  tau(  48) = (   0.5000000   0.5773509   0.0000000  )
        49           C   tau(  49) = (   0.3750000   0.6495191   0.0000000  )
        50           Si  tau(  50) = (   0.3750000   0.7938573   0.0000000  )

     number of k points=     3
                       cart. coord. in units 2pi/alat
        k(    1) = (   0.0000000   0.0000000   0.0000000), wk =   0.2222222
        k(    2) = (   0.0000000   0.3849002   0.0000000), wk =   1.3333333
        k(    3) = (   0.3333333   0.5773503   0.0000000), wk =   0.4444444

     Dense  grid:   388955 G-vectors     FFT dimensions: (  81,  81, 135)

     Estimated max dynamical RAM per process >       6.85 GB

     Initial potential from superposition of free atoms
     Check: negative starting charge=   -0.006709

     starting charge  199.97158, renormalised to  200.00000

     negative rho (up, down):  6.710E-03 0.000E+00
     Starting wfcs are  800 randomized atomic wfcs

     total cpu time spent up to now is      645.6 secs

     Self-consistent Calculation

     iteration #  1     ecut=    30.00 Ry     beta= 0.70
     Davidson diagonalization with overlap
     ethr =  1.00E-02,  avg # of iterations =  2.0

     negative rho (up, down):  1.400E-03 0.000E+00

     total cpu time spent up to now is      871.4 secs

     total energy              =    -444.59947345 Ry
     Harris-Foulkes estimate   =    -451.60394140 Ry
     estimated scf accuracy    <      10.39186230 Ry

     iteration #  2     ecut=    30.00 Ry     beta= 0.70
     Davidson diagonalization with overlap
     ethr =  5.20E-03,  avg # of iterations =  4.7

     negative rho (up, down):  1.031E-03 0.000E+00

     total cpu time spent up to now is     1143.0 secs

     total energy              =    -436.70386745 Ry
     Harris-Foulkes estimate   =    -452.52647843 Ry
     estimated scf accuracy    <      46.42849363 Ry

     iteration #  3     ecut=    30.00 Ry     beta= 0.70
     Davidson diagonalization with overlap
     ethr =  5.20E-03,  avg # of iterations =  6.3

     negative rho (up, down):  4.245E-04 0.000E+00

     total cpu time spent up to now is     1463.9 secs

     total energy              =    -438.34653021 Ry
     Harris-Foulkes estimate   =    -456.24796088 Ry
     estimated scf accuracy    <     142.08048776 Ry

     iteration #  4     ecut=    30.00 Ry     beta= 0.70
     Davidson diagonalization with overlap
     ethr =  5.20E-03,  avg # of iterations =  4.0

     negative rho (up, down):  2.684E-04 0.000E+00

     total cpu time spent up to now is     1688.1 secs

     total energy              =    -448.50615449 Ry
     Harris-Foulkes estimate   =    -448.83844124 Ry
     estimated scf accuracy    <       1.11114849 Ry

     iteration #  5     ecut=    30.00 Ry     beta= 0.70
     Davidson diagonalization with overlap
     ethr =  5.56E-04,  avg # of iterations =  8.7

     negative rho (up, down):  5.926E-05 0.000E+00

     total cpu time spent up to now is     1951.3 secs

     total energy              =    -448.65352501 Ry
     Harris-Foulkes estimate   =    -448.71379464 Ry
     estimated scf accuracy    <       0.18080264 Ry

     iteration #  6     ecut=    30.00 Ry     beta= 0.70
     Davidson diagonalization with overlap
     ethr =  9.04E-05,  avg # of iterations =  6.7

     negative rho (up, down):  6.259E-07 0.000E+00

     total cpu time spent up to now is     2091.9 secs

     total energy              =    -448.65151372 Ry
     Harris-Foulkes estimate   =    -448.69131916 Ry
     estimated scf accuracy    <       0.10121816 Ry

     iteration #  7     ecut=    30.00 Ry     beta= 0.70
     Davidson diagonalization with overlap
     ethr =  5.06E-05,  avg # of iterations =  4.3

     total cpu time spent up to now is     2278.2 secs

     total energy              =    -448.66572280 Ry
     Harris-Foulkes estimate   =    -448.68606730 Ry
     estimated scf accuracy    <       0.06703852 Ry

     iteration #  8     ecut=    30.00 Ry     beta= 0.70
     Davidson diagonalization with overlap
     ethr =  3.35E-05,  avg # of iterations =  2.7

     total cpu time spent up to now is     2465.6 secs

     total energy              =    -448.67588741 Ry
     Harris-Foulkes estimate   =    -448.67663435 Ry
     estimated scf accuracy    <       0.00173856 Ry

     iteration #  9     ecut=    30.00 Ry     beta= 0.70
     Davidson diagonalization with overlap
     ethr =  8.69E-07,  avg # of iterations =  8.7

     total cpu time spent up to now is     2812.3 secs

     total energy              =    -448.67657224 Ry
     Harris-Foulkes estimate   =    -448.67711310 Ry
     estimated scf accuracy    <       0.00148046 Ry

     iteration # 10     ecut=    30.00 Ry     beta= 0.70
     Davidson diagonalization with overlap
     ethr =  7.40E-07,  avg # of iterations =  2.3

     total cpu time spent up to now is     3014.1 secs

     total energy              =    -448.67676942 Ry
     Harris-Foulkes estimate   =    -448.67694059 Ry
     estimated scf accuracy    <       0.00061918 Ry

     iteration # 11     ecut=    30.00 Ry     beta= 0.70
     Davidson diagonalization with overlap
     ethr =  3.10E-07,  avg # of iterations =  2.0

     total cpu time spent up to now is     3195.2 secs

     total energy              =    -448.67680074 Ry
     Harris-Foulkes estimate   =    -448.67687960 Ry
     estimated scf accuracy    <       0.00018247 Ry

     iteration # 12     ecut=    30.00 Ry     beta= 0.70
     Davidson diagonalization with overlap
     ethr =  9.12E-08,  avg # of iterations =  2.7

     total cpu time spent up to now is     3414.6 secs

     End of self-consistent calculation

          k = 0.0000 0.0000 0.0000 ( 48515 PWs)   bands (ev):

   -15.9168 -14.9248 -14.9044 -14.9044 -14.8698 -14.8698 -14.8513 -13.1738
   -13.1612 -13.1083 -13.1083 -13.0971 -13.0971 -12.8873 -12.8873 -12.8830
   -12.0243 -10.9123 -10.9021 -10.9021 -10.8855 -10.8855 -10.8744  -9.9505
    -9.9505  -9.9478  -9.1398  -9.1385  -9.0529  -9.0529  -8.7092  -8.7092
    -8.7002  -8.7002  -8.6681  -8.6639  -6.9410  -6.9364  -6.9364  -6.9292
    -6.9291  -6.9176  -6.7044  -6.7043  -6.6787  -6.6679  -6.6679  -6.6576
    -6.5350  -6.5062  -6.5062  -6.4804  -6.4804  -6.4701  -6.1628  -4.9959
    -4.9749  -4.9749  -4.9395  -4.9395  -4.9204  -4.8130  -4.8130  -4.8123
    -4.5891  -4.5891  -4.1419  -4.1379  -4.1378  -4.1224  -4.1224  -4.1146
    -3.9680  -3.2365  -3.2303  -3.2280  -3.2279  -3.0122  -3.0122  -2.8612
    -2.8611  -2.8026  -2.7921  -2.7921  -2.6115  -2.6104  -2.6103  -2.5793
    -2.5600  -2.5599  -2.3460  -2.3460  -2.3366  -2.2768  -2.2627  -2.2627
    -1.3980  -1.3979  -0.7361  -0.7361  -0.6384  -0.6069  -0.5963  -0.1250
    -0.1250  -0.1043   0.3595   0.3595   0.4154   0.6233   0.6849   0.6849
     1.0989   1.0989   1.1184   1.1959   1.4586   1.4586   1.5818   1.5824
     1.5824   1.6664   1.7865   1.7865

          k = 0.0000 0.3849 0.0000 ( 48609 PWs)   bands (ev):

   -15.8006 -15.4521 -15.1101 -15.1087 -14.4562 -14.4534 -14.1432 -13.8419
   -13.8395 -13.3370 -13.0812 -13.0704 -12.9549 -12.9463 -12.5257 -12.5253
   -11.8935 -11.5061 -11.1294 -11.1287 -10.4412 -10.4408 -10.2100  -9.8134
    -9.8128  -9.7095  -9.7069  -9.3413  -9.2893  -9.2809  -9.1235  -9.1233
    -8.3241  -8.3240  -8.0656  -8.0087  -8.0055  -7.9924  -7.6155  -7.6147
    -7.2800  -7.2771  -7.2233  -7.2196  -6.4035  -6.4025  -6.1439  -6.1421
    -6.0641  -5.8867  -5.8236  -5.8175  -5.7199  -5.7122  -5.2431  -5.2424
    -5.1730  -5.1536  -5.1402  -4.9830  -4.7315  -4.6978  -4.6961  -4.5229
    -4.5210  -4.4773  -4.2732  -4.2724  -4.2394  -4.2028  -4.2020  -4.1558
    -3.8226  -3.8214  -3.7427  -3.7233  -3.3756  -3.3752  -3.3697  -3.2863
    -3.0377  -3.0138  -2.8930  -2.8667  -2.8544  -2.7739  -2.7670  -2.7122
    -2.4584  -2.4174  -2.4164  -2.2838  -2.2690  -2.1592  -1.8592  -1.8574
    -1.8147  -1.6520  -1.2754  -1.2685  -0.3067  -0.2757  -0.0751   0.0084
     0.0107   0.5340   0.5710   0.6191   0.6192   0.7729   0.9248   1.0314
     1.1528   1.2476   1.2814   1.2963   1.5290   1.5491   1.6503   1.6789
     1.7154   1.8257   1.8455   2.1574

          k = 0.3333 0.5774 0.0000 ( 48552 PWs)   bands (ev):

   -15.6021 -15.5570 -15.5414 -14.5610 -14.5595 -14.5582 -13.7034 -13.6813
   -13.6785 -13.6417 -13.6394 -13.6222 -12.6958 -12.6443 -12.6299 -12.2927
   -11.6441 -11.6407 -11.6162 -10.5296 -10.5284 -10.5273  -9.9631  -9.9463
    -9.9418  -9.6910  -9.6624  -9.6397  -9.2572  -8.7073  -8.6989  -8.6890
    -8.6722  -8.6603  -8.6537  -8.3025  -8.2968  -8.2815  -7.7397  -7.3794
    -7.3756  -7.3719  -6.8472  -6.8449  -6.8445  -6.2949  -6.2852  -6.2646
    -5.9115  -5.8692  -5.8668  -5.0849  -5.0819  -5.0698  -5.0530  -5.0451
    -5.0428  -5.0111  -5.0109  -5.0089  -4.8807  -4.8705  -4.8604  -4.6269
    -4.6232  -4.6209  -4.5675  -4.5524  -4.5457  -3.8049  -3.7957  -3.7784
    -3.7617  -3.7525  -3.7400  -3.7001  -3.6999  -3.6712  -3.6697  -3.6451
    -3.6418  -3.3710  -3.3578  -3.3498  -2.7163  -2.7126  -2.7050  -2.5367
    -2.4743  -2.3918  -2.2058  -2.2052  -2.1951  -1.9702  -1.9358  -1.8776
    -1.8571  -1.4782  -1.4756  -1.4749  -0.3637  -0.2482  -0.1142  -0.0916
     0.0741   0.4493   0.8105   0.8670   1.1563   1.1652   1.1884   1.2789
     1.3669   1.4084   1.4490   1.4534   1.4814   1.4863   1.5720   1.8334
     1.8651   1.8790   1.9406   1.9741

     highest occupied, lowest unoccupied level (ev):    -0.7361   -0.6384

!    total energy              =    -448.67682669 Ry
     Harris-Foulkes estimate   =    -448.67684982 Ry
     estimated scf accuracy    <       0.00002990 Ry

     convergence has been achieved in  12 iterations

     Using ACE for calculation of exact exchange

     EXX grid:   388955 G-vectors     FFT dimensions: (  81,  81, 135)

     EXX: now go back to refine exchange calculation

     total cpu time spent up to now is     7447.8 secs

     Self-consistent Calculation

     iteration #  1     ecut=    30.00 Ry     beta= 0.70
     Davidson diagonalization with overlap
     ethr =  9.12E-08,  avg # of iterations =  7.3

     total cpu time spent up to now is     8006.9 secs

     total energy              =    -448.45717383 Ry
     Harris-Foulkes estimate   =    -448.46050049 Ry
     estimated scf accuracy    <       0.00705274 Ry

     iteration #  2     ecut=    30.00 Ry     beta= 0.70
     Davidson diagonalization with overlap
     ethr =  3.53E-06,  avg # of iterations =  4.0

     total cpu time spent up to now is     8309.6 secs

     total energy              =    -448.45686220 Ry
     Harris-Foulkes estimate   =    -448.45953194 Ry
     estimated scf accuracy    <       0.00449132 Ry

     iteration #  3     ecut=    30.00 Ry     beta= 0.70
     Davidson diagonalization with overlap
     ethr =  2.25E-06,  avg # of iterations =  4.0

     total cpu time spent up to now is     8572.9 secs

     total energy              =    -448.45793792 Ry
     Harris-Foulkes estimate   =    -448.45891369 Ry
     estimated scf accuracy    <       0.00228812 Ry

     iteration #  4     ecut=    30.00 Ry     beta= 0.70
     Davidson diagonalization with overlap
     ethr =  1.14E-06,  avg # of iterations =  3.0

     total cpu time spent up to now is     8787.4 secs

     total energy              =    -448.45833339 Ry
     Harris-Foulkes estimate   =    -448.45855318 Ry
     estimated scf accuracy    <       0.00051717 Ry

     iteration #  5     ecut=    30.00 Ry     beta= 0.70
     Davidson diagonalization with overlap
     ethr =  2.59E-07,  avg # of iterations =  2.0

     total cpu time spent up to now is     8997.1 secs

     End of self-consistent calculation

          k = 0.0000 0.0000 0.0000 ( 48515 PWs)   bands (ev):

   -17.9911 -16.9069 -16.8869 -16.8869 -16.8535 -16.8535 -16.8344 -15.0158
   -15.0053 -14.9533 -14.9533 -14.9413 -14.9413 -14.7270 -14.7269 -14.7245
   -13.5698 -12.3154 -12.3008 -12.3007 -12.2845 -12.2844 -12.2687 -11.2993
   -11.2993 -11.2961 -10.3250 -10.3233 -10.2669 -10.2669  -9.9518  -9.9518
    -9.9466  -9.9466  -9.8985  -9.8950  -7.8888  -7.8888  -7.8877  -7.8763
    -7.8762  -7.8633  -7.7251  -7.7251  -7.7075  -7.6844  -7.6844  -7.6683
    -7.5719  -7.5444  -7.5443  -7.5176  -7.5176  -7.5077  -7.1364  -5.7752
    -5.7558  -5.7558  -5.7249  -5.7249  -5.7082  -5.6981  -5.6981  -5.6977
    -5.2492  -5.2492  -4.9561  -4.9516  -4.9516  -4.9349  -4.9348  -4.9277
    -4.6094  -3.9464  -3.9463  -3.7169  -3.7167  -3.5305  -3.5305  -3.3603
    -3.3603  -3.3026  -3.2968  -3.2968  -3.1402  -3.1380  -3.1379  -3.1086
    -3.0806  -3.0805  -2.6998  -2.6997  -2.6988  -2.6360  -2.6260  -2.6260
    -1.8348  -1.8347  -0.9561  -0.9561  -0.5794  -0.5403  -0.3643   0.0091
     0.0091   0.0413   0.5345   0.5345   0.5853   0.8645   0.9256   0.9256
     1.3760   1.3760   1.3875   1.4467   1.7937   1.7937   1.9187   1.9614
     1.9615   2.0628   2.1693   2.1695

          k = 0.0000 0.3849 0.0000 ( 48609 PWs)   bands (ev):

   -17.8724 -17.4953 -17.1201 -17.1181 -16.4029 -16.4005 -16.0625 -15.7427
   -15.7408 -15.2030 -14.9318 -14.9188 -14.8019 -14.7920 -14.3437 -14.3435
   -13.4121 -12.9904 -12.5534 -12.5526 -11.7719 -11.7716 -11.5196 -11.1020
   -11.1016 -11.0439 -11.0407 -10.6505 -10.5719 -10.5653 -10.4148 -10.4146
    -9.4026  -9.4023  -9.2461  -9.1961  -9.1933  -9.1248  -8.6607  -8.6598
    -8.4075  -8.4046  -8.3151  -8.3102  -7.2461  -7.2438  -7.1017  -7.0982
    -7.0319  -6.7857  -6.7809  -6.7420  -6.6404  -6.6282  -6.1418  -6.1413
    -5.9812  -5.9805  -5.8590  -5.8093  -5.6114  -5.5425  -5.5416  -5.3445
    -5.2488  -5.2414  -4.9914  -4.9877  -4.9026  -4.8730  -4.8728  -4.7918
    -4.4850  -4.4786  -4.4345  -4.4340  -4.0984  -3.9117  -3.9117  -3.8463
    -3.5484  -3.5225  -3.4355  -3.3932  -3.3700  -3.2397  -3.2371  -3.1691
    -2.8888  -2.8073  -2.8064  -2.7206  -2.7041  -2.6104  -2.1553  -2.1480
    -2.1169  -2.0719  -1.4889  -1.4819  -0.2497  -0.2142   0.0000   0.1133
     0.1154   0.7532   0.8143   0.8267   0.8298   1.0034   1.2133   1.3281
     1.4444   1.5523   1.5605   1.5871   1.8231   1.8248   1.9406   1.9747
     2.0469   2.1676   2.1841   2.6220

          k = 0.3333 0.5774 0.0000 ( 48552 PWs)   bands (ev):

   -17.6588 -17.6072 -17.5970 -16.5220 -16.5201 -16.5190 -15.5945 -15.5707
   -15.5682 -15.5281 -15.5260 -15.5062 -14.5349 -14.4773 -14.4649 -14.1055
   -13.1337 -13.1227 -13.1023 -11.8829 -11.8780 -11.8779 -11.2521 -11.2343
   -11.2327 -11.0104 -10.9817 -10.9547 -10.5201  -9.9715  -9.9629  -9.9514
    -9.9345  -9.9201  -9.9142  -9.4119  -9.4047  -9.3894  -8.8986  -8.3519
    -8.3481  -8.3431  -7.9219  -7.9199  -7.9194  -7.2709  -7.2590  -7.2376
    -6.8308  -6.7844  -6.7774  -5.9672  -5.9645  -5.9508  -5.9327  -5.9205
    -5.9173  -5.8608  -5.8607  -5.8567  -5.5274  -5.5252  -5.5199  -5.3749
    -5.3717  -5.3709  -5.3631  -5.3571  -5.3524  -4.4437  -4.4407  -4.4234
    -4.4174  -4.4097  -4.3789  -4.2828  -4.2806  -4.2594  -4.2583  -4.2507
    -4.2328  -3.9509  -3.9435  -3.9321  -3.1706  -3.1625  -3.1588  -3.0227
    -2.9606  -2.8652  -2.6308  -2.6270  -2.6163  -2.3974  -2.2421  -2.1821
    -2.1649  -1.7316  -1.7271  -1.7262  -0.3114  -0.1600  -0.0428  -0.0197
     0.2131   0.6489   1.1028   1.1184   1.4359   1.4415   1.4649   1.5657
     1.6337   1.6794   1.7241   1.7280   1.7324   1.7482   1.8832   2.1865
     2.2077   2.2399   2.2852   2.3698

     highest occupied, lowest unoccupied level (ev):    -0.9561   -0.5794

!    total energy              =    -448.45841051 Ry
     Harris-Foulkes estimate   =    -448.45845254 Ry
     estimated scf accuracy    <       0.00004615 Ry

     convergence has been achieved in   5 iterations

     Using ACE for calculation of exact exchange

     total energy              =    -448.46292028 Ry
     Harris-Foulkes estimate   =    -448.46296231 Ry
     est. exchange err (dexx)  =       0.00450977 Ry
     - averaged Fock potential =      48.74672289 Ry
     + Fock energy (ACE)       =     -24.40438958 Ry

     EXX: now go back to refine exchange calculation

     total cpu time spent up to now is    13384.5 secs

     Self-consistent Calculation

     iteration #  1     ecut=    30.00 Ry     beta= 0.70
     Davidson diagonalization with overlap
     ethr =  2.59E-07,  avg # of iterations =  4.0

     total cpu time spent up to now is    13719.1 secs

     total energy              =    -448.46326180 Ry
     Harris-Foulkes estimate   =    -448.46380874 Ry
     estimated scf accuracy    <       0.00071007 Ry

     iteration #  2     ecut=    30.00 Ry     beta= 0.70
     Davidson diagonalization with overlap
     ethr =  3.55E-07,  avg # of iterations =  3.0

     total cpu time spent up to now is    13980.6 secs

     total energy              =    -448.46299393 Ry
     Harris-Foulkes estimate   =    -448.46440532 Ry
     estimated scf accuracy    <       0.00416445 Ry

     iteration #  3     ecut=    30.00 Ry     beta= 0.70
     Davidson diagonalization with overlap
     ethr =  3.55E-07,  avg # of iterations =  3.0

     total cpu time spent up to now is    14212.4 secs

     End of self-consistent calculation

          k = 0.0000 0.0000 0.0000 ( 48515 PWs)   bands (ev):

   -17.9804 -16.8955 -16.8757 -16.8757 -16.8434 -16.8434 -16.8250 -15.0041
   -14.9941 -14.9473 -14.9473 -14.9318 -14.9318 -14.7189 -14.7189 -14.7175
   -13.5671 -12.3162 -12.3007 -12.3007 -12.2813 -12.2812 -12.2650 -11.2870
   -11.2869 -11.2839 -10.3131 -10.3116 -10.2712 -10.2712  -9.9424  -9.9424
    -9.9382  -9.9382  -9.8874  -9.8840  -7.8860  -7.8818  -7.8818  -7.8719
    -7.8719  -7.8541  -7.7169  -7.7168  -7.7022  -7.6757  -7.6756  -7.6642
    -7.5621  -7.5357  -7.5357  -7.5101  -7.5101  -7.5006  -7.1259  -5.7645
    -5.7457  -5.7457  -5.7172  -5.7172  -5.7010  -5.6982  -5.6981  -5.6978
    -5.2580  -5.2580  -4.9558  -4.9515  -4.9514  -4.9350  -4.9349  -4.9278
    -4.6075  -3.9481  -3.9480  -3.7085  -3.7065  -3.5345  -3.5345  -3.3617
    -3.3617  -3.3034  -3.2960  -3.2960  -3.1565  -3.1565  -3.1555  -3.1239
    -3.0913  -3.0912  -2.7048  -2.7047  -2.6989  -2.6445  -2.6291  -2.6291
    -1.8562  -1.8560  -0.9874  -0.9874  -0.5468  -0.5071  -0.3354   0.0240
     0.0240   0.0537   0.5446   0.5446   0.5982   0.8787   0.9408   0.9409
     1.3885   1.3885   1.4034   1.4524   1.8071   1.8071   1.9276   1.9753
     1.9753   2.0835   2.1819   2.1820

          k = 0.0000 0.3849 0.0000 ( 48609 PWs)   bands (ev):

   -17.8617 -17.4846 -17.1097 -17.1080 -16.3935 -16.3910 -16.0535 -15.7335
   -15.7315 -15.1949 -14.9231 -14.9112 -14.7938 -14.7850 -14.3368 -14.3367
   -13.4095 -12.9885 -12.5515 -12.5506 -11.7695 -11.7689 -11.5169 -11.0994
   -11.0989 -11.0315 -11.0286 -10.6383 -10.5599 -10.5539 -10.4033 -10.4032
    -9.3982  -9.3980  -9.2357  -9.1870  -9.1842  -9.1207  -8.6562  -8.6553
    -8.3979  -8.3950  -8.3061  -8.3013  -7.2407  -7.2384  -7.0972  -7.0938
    -7.0224  -6.7795  -6.7752  -6.7345  -6.6367  -6.6240  -6.1405  -6.1400
    -5.9736  -5.9727  -5.8543  -5.8058  -5.6114  -5.5414  -5.5405  -5.3442
    -5.2426  -5.2354  -4.9916  -4.9879  -4.8974  -4.8792  -4.8791  -4.7864
    -4.4862  -4.4788  -4.4323  -4.4319  -4.1002  -3.9211  -3.9209  -3.8457
    -3.5509  -3.5247  -3.4485  -3.3984  -3.3737  -3.2461  -3.2424  -3.1730
    -2.8934  -2.8066  -2.8052  -2.7269  -2.7106  -2.6262  -2.1562  -2.1470
    -2.1147  -2.0859  -1.4889  -1.4817  -0.2393  -0.2058   0.0053   0.1218
     0.1224   0.7671   0.8282   0.8415   0.8422   1.0192   1.2285   1.3443
     1.4584   1.5609   1.5760   1.6014   1.8328   1.8358   1.9508   1.9823
     2.0580   2.1803   2.1941   2.6344

          k = 0.3333 0.5774 0.0000 ( 48552 PWs)   bands (ev):

   -17.6464 -17.6007 -17.5841 -16.5125 -16.5108 -16.5091 -15.5849 -15.5626
   -15.5582 -15.5207 -15.5170 -15.4986 -14.5266 -14.4737 -14.4557 -14.0995
   -13.1281 -13.1275 -13.0965 -11.8782 -11.8770 -11.8768 -11.2511 -11.2335
   -11.2258 -10.9980 -10.9674 -10.9440 -10.5072  -9.9603  -9.9514  -9.9400
    -9.9232  -9.9091  -9.9026  -9.4087  -9.4022  -9.3843  -8.8874  -8.3455
    -8.3440  -8.3403  -7.9142  -7.9122  -7.9117  -7.2653  -7.2565  -7.2330
    -6.8199  -6.7729  -6.7728  -5.9652  -5.9623  -5.9488  -5.9315  -5.9197
    -5.9161  -5.8598  -5.8590  -5.8555  -5.5228  -5.5215  -5.5142  -5.3688
    -5.3682  -5.3653  -5.3591  -5.3537  -5.3511  -4.4434  -4.4431  -4.4207
    -4.4145  -4.4117  -4.3775  -4.2949  -4.2827  -4.2644  -4.2622  -4.2491
    -4.2367  -3.9574  -3.9472  -3.9344  -3.1760  -3.1624  -3.1593  -3.0276
    -2.9686  -2.8684  -2.6405  -2.6394  -2.6293  -2.4082  -2.2422  -2.1789
    -2.1650  -1.7274  -1.7263  -1.7262  -0.3007  -0.1494  -0.0392  -0.0142
     0.2244   0.6617   1.1233   1.1332   1.4497   1.4509   1.4775   1.5773
     1.6409   1.6917   1.7336   1.7349   1.7405   1.7593   1.8967   2.1953
     2.2177   2.2493   2.2978   2.3821

     highest occupied, lowest unoccupied level (ev):    -0.9874   -0.5468

!    total energy              =    -448.46363465 Ry
     Harris-Foulkes estimate   =    -448.46367195 Ry
     estimated scf accuracy    <       0.00004236 Ry

     convergence has been achieved in   3 iterations

     Using ACE for calculation of exact exchange

     total energy              =    -448.46377206 Ry
     Harris-Foulkes estimate   =    -448.46380935 Ry
     est. exchange err (dexx)  =       0.00013741 Ry
     - averaged Fock potential =      48.81900966 Ry
     + Fock energy (ACE)       =     -24.41475748 Ry

     EXX: now go back to refine exchange calculation

     total cpu time spent up to now is    18614.5 secs

     Self-consistent Calculation

     iteration #  1     ecut=    30.00 Ry     beta= 0.70
     Davidson diagonalization with overlap
     ethr =  3.55E-07,  avg # of iterations =  2.7

     total cpu time spent up to now is    18878.3 secs

     total energy              =    -448.46353558 Ry
     Harris-Foulkes estimate   =    -448.46392035 Ry
     estimated scf accuracy    <       0.00044904 Ry

     iteration #  2     ecut=    30.00 Ry     beta= 0.70
     Davidson diagonalization with overlap
     ethr =  2.25E-07,  avg # of iterations =  3.0

     total cpu time spent up to now is    19127.6 secs

     total energy              =    -448.46337507 Ry
     Harris-Foulkes estimate   =    -448.46435797 Ry
     estimated scf accuracy    <       0.00292430 Ry

     iteration #  3     ecut=    30.00 Ry     beta= 0.70
     Davidson diagonalization with overlap
     ethr =  2.25E-07,  avg # of iterations =  3.0

     total cpu time spent up to now is    19364.1 secs

     End of self-consistent calculation

          k = 0.0000 0.0000 0.0000 ( 48515 PWs)   bands (ev):

   -17.9795 -16.8953 -16.8751 -16.8751 -16.8422 -16.8422 -16.8233 -15.0056
   -14.9947 -14.9442 -14.9442 -14.9316 -14.9316 -14.7184 -14.7184 -14.7164
   -13.5673 -12.3154 -12.2998 -12.2998 -12.2826 -12.2826 -12.2663 -11.2862
   -11.2862 -11.2828 -10.3107 -10.3091 -10.2738 -10.2738  -9.9424  -9.9424
    -9.9359  -9.9359  -9.8877  -9.8842  -7.8822  -7.8821  -7.8820  -7.8715
    -7.8715  -7.8580  -7.7178  -7.7178  -7.6993  -7.6769  -7.6769  -7.6615
    -7.5625  -7.5358  -7.5357  -7.5091  -7.5091  -7.4992  -7.1249  -5.7645
    -5.7453  -5.7453  -5.7160  -5.7160  -5.6992  -5.6991  -5.6990  -5.6986
    -5.2594  -5.2594  -4.9568  -4.9526  -4.9526  -4.9355  -4.9355  -4.9284
    -4.6083  -3.9491  -3.9490  -3.7090  -3.7078  -3.5340  -3.5340  -3.3622
    -3.3622  -3.3040  -3.2985  -3.2985  -3.1581  -3.1565  -3.1564  -3.1268
    -3.0960  -3.0960  -2.7053  -2.7049  -2.7048  -2.6423  -2.6331  -2.6331
    -1.8599  -1.8597  -0.9981  -0.9981  -0.5388  -0.4985  -0.3323   0.0256
     0.0257   0.0585   0.5469   0.5469   0.5985   0.8803   0.9417   0.9417
     1.3903   1.3903   1.4024   1.4525   1.8096   1.8096   1.9299   1.9786
     1.9786   2.0851   2.1816   2.1816

          k = 0.0000 0.3849 0.0000 ( 48609 PWs)   bands (ev):

   -17.8610 -17.4837 -17.1089 -17.1070 -16.3929 -16.3903 -16.0528 -15.7329
   -15.7308 -15.1942 -14.9237 -14.9102 -14.7937 -14.7836 -14.3363 -14.3362
   -13.4097 -12.9888 -12.5518 -12.5510 -11.7696 -11.7692 -11.5175 -11.0997
   -11.0993 -11.0309 -11.0276 -10.6381 -10.5589 -10.5525 -10.4022 -10.4021
    -9.3983  -9.3981  -9.2349  -9.1866  -9.1837  -9.1207  -8.6563  -8.6554
    -8.3974  -8.3946  -8.3055  -8.3006  -7.2411  -7.2388  -7.0979  -7.0942
    -7.0220  -6.7796  -6.7754  -6.7344  -6.6372  -6.6244  -6.1414  -6.1410
    -5.9731  -5.9722  -5.8545  -5.8065  -5.6124  -5.5423  -5.5414  -5.3449
    -5.2425  -5.2352  -4.9928  -4.9891  -4.8973  -4.8806  -4.8806  -4.7864
    -4.4874  -4.4799  -4.4333  -4.4327  -4.1013  -3.9232  -3.9232  -3.8465
    -3.5537  -3.5274  -3.4510  -3.3977  -3.3746  -3.2474  -3.2450  -3.1745
    -2.8947  -2.8068  -2.8058  -2.7292  -2.7130  -2.6294  -2.1576  -2.1462
    -2.1167  -2.0884  -1.4895  -1.4823  -0.2402  -0.2061   0.0074   0.1224
     0.1242   0.7701   0.8302   0.8409   0.8428   1.0195   1.2334   1.3480
     1.4599   1.5617   1.5791   1.6026   1.8345   1.8348   1.9514   1.9850
     2.0593   2.1805   2.1963   2.6319

          k = 0.3333 0.5774 0.0000 ( 48552 PWs)   bands (ev):

   -17.6477 -17.5960 -17.5849 -16.5119 -16.5098 -16.5085 -15.5860 -15.5617
   -15.5591 -15.5186 -15.5166 -15.4966 -14.5279 -14.4698 -14.4570 -14.0992
   -13.1310 -13.1222 -13.0996 -11.8806 -11.8762 -11.8761 -11.2501 -11.2322
   -11.2291 -10.9972 -10.9682 -10.9413 -10.5065  -9.9595  -9.9509  -9.9391
    -9.9222  -9.9077  -9.9017  -9.4085  -9.4016  -9.3856  -8.8864  -8.3470
    -8.3442  -8.3392  -7.9140  -7.9120  -7.9116  -7.2675  -7.2554  -7.2337
    -6.8215  -6.7742  -6.7689  -5.9671  -5.9643  -5.9502  -5.9321  -5.9198
    -5.9165  -5.8602  -5.8601  -5.8562  -5.5224  -5.5209  -5.5147  -5.3689
    -5.3685  -5.3652  -5.3594  -5.3559  -5.3512  -4.4465  -4.4435  -4.4216
    -4.4155  -4.4123  -4.3770  -4.2924  -4.2857  -4.2675  -4.2631  -4.2517
    -4.2396  -3.9560  -3.9481  -3.9374  -3.1744  -3.1642  -3.1616  -3.0305
    -2.9672  -2.8720  -2.6449  -2.6418  -2.6310  -2.4109  -2.2419  -2.1811
    -2.1647  -1.7302  -1.7259  -1.7254  -0.3021  -0.1504  -0.0389  -0.0104
     0.2262   0.6624   1.1278   1.1361   1.4487   1.4529   1.4769   1.5798
     1.6432   1.6905   1.7349   1.7359   1.7429   1.7598   1.8983   2.1958
     2.2165   2.2503   2.2989   2.3848

     highest occupied, lowest unoccupied level (ev):    -0.9981   -0.5388

!    total energy              =    -448.46380835 Ry
     Harris-Foulkes estimate   =    -448.46383479 Ry
     estimated scf accuracy    <       0.00002852 Ry

     convergence has been achieved in   3 iterations

     Using ACE for calculation of exact exchange

!!   total energy              =    -448.46381701 Ry
     Harris-Foulkes estimate   =    -448.46384345 Ry
     est. exchange err (dexx)  =       0.00000866 Ry
     - averaged Fock potential =      48.83229427 Ry
     + Fock energy (ACE)       =     -24.41754545 Ry

     EXX self-consistency reached

     Forces acting on atoms (cartesian axes, Ry/au):

     atom    1 type  1   force =     0.00000000    0.00000000   -0.00147214
     atom    2 type  1   force =     0.00000000    0.00278847    0.00189307
     atom    3 type  1   force =     0.00278390   -0.00088817   -0.00043937
     atom    4 type  1   force =     0.00082267    0.00047497    0.00191228
     atom    5 type  1   force =     0.00062277    0.00285501   -0.00043937
     atom    6 type  1   force =     0.00241489   -0.00139423    0.00189307
     atom    7 type  1   force =    -0.00216112   -0.00196684   -0.00043937
     atom    8 type  1   force =     0.00137897    0.00079615   -0.00072733
     atom    9 type  1   force =    -0.00278390   -0.00088817   -0.00043937
     atom   10 type  1   force =    -0.00082267    0.00047497    0.00191228
     atom   11 type  1   force =     0.00000000    0.00000000   -0.00496165
     atom   12 type  1   force =     0.00000000   -0.00094993    0.00191228
     atom   13 type  1   force =     0.00216112   -0.00196684   -0.00043937
     atom   14 type  1   force =    -0.00137897    0.00079615   -0.00072733
     atom   15 type  1   force =     0.00000000    0.00000000    0.00219308
     atom   16 type  1   force =    -0.00000000   -0.00159230   -0.00072733
     atom   17 type  1   force =    -0.00062277    0.00285501   -0.00043937
     atom   18 type  1   force =    -0.00241489   -0.00139423    0.00189307
     atom   19 type  2   force =     0.00000000    0.00000000   -0.00358852
     atom   20 type  3   force =     0.00000000    0.00690379    0.00201125
     atom   21 type  2   force =     0.00179449   -0.00582574   -0.00506188
     atom   22 type  3   force =     0.00164768    0.00728423    0.00747533
     atom   23 type  2   force =    -0.00233052   -0.00134553   -0.00596813
     atom   24 type  3   force =     0.00713217   -0.00221519    0.00747533
     atom   25 type  2   force =    -0.00414799    0.00446694   -0.00506188
     atom   26 type  3   force =     0.00597886   -0.00345189    0.00201125
     atom   27 type  2   force =    -0.00594248    0.00135879   -0.00506188
     atom   28 type  3   force =     0.00442672    0.00255577    0.00283174
     atom   29 type  2   force =    -0.00179449   -0.00582574   -0.00506188
     atom   30 type  3   force =    -0.00164768    0.00728423    0.00747533
     atom   31 type  2   force =     0.00000000   -0.00547486   -0.00627046
     atom   32 type  3   force =     0.00000000    0.00000000    0.01676411
     atom   33 type  2   force =    -0.00474137    0.00273743   -0.00627046
     atom   34 type  3   force =     0.00548449   -0.00506905    0.00747533
     atom   35 type  2   force =     0.00000000    0.00269105   -0.00596813
     atom   36 type  3   force =     0.00000000   -0.00195434    0.00314615
     atom   37 type  2   force =    -0.00221755   -0.00128030   -0.00575502
     atom   38 type  3   force =    -0.00169251    0.00097717    0.00314615
     atom   39 type  2   force =     0.00233052   -0.00134553   -0.00596813
     atom   40 type  3   force =    -0.00713217   -0.00221519    0.00747533
     atom   41 type  2   force =     0.00474137    0.00273743   -0.00627046
     atom   42 type  3   force =    -0.00548449   -0.00506905    0.00747533
     atom   43 type  2   force =     0.00594248    0.00135879   -0.00506188
     atom   44 type  3   force =    -0.00442672    0.00255577    0.00283174
     atom   45 type  2   force =     0.00221755   -0.00128030   -0.00575502
     atom   46 type  3   force =     0.00169251    0.00097717    0.00314615
     atom   47 type  2   force =     0.00000000    0.00256061   -0.00575502
     atom   48 type  3   force =    -0.00000000   -0.00511153    0.00283174
     atom   49 type  2   force =     0.00414799    0.00446694   -0.00506188
     atom   50 type  3   force =    -0.00597886   -0.00345189    0.00201125

     Total force =     0.047283     Total SCF correction =     0.011359
     SCF correction compared to forces is large: reduce conv_thr to get better values


     Computing stress (Cartesian axis) and pressure

          total   stress  (Ry/bohr**3)                   (kbar)     P=  -15.77
  -0.00010564   0.00000000   0.00000000        -15.54      0.00      0.00
   0.00000000  -0.00010564   0.00000000          0.00    -15.54      0.00
   0.00000000   0.00000000  -0.00011025          0.00      0.00    -16.22


     Writing output data file gesic2-hse.save/

     init_run     :    643.29s CPU    645.25s WALL (       1 calls)
     electrons    :   5770.39s CPU   5896.49s WALL (       4 calls)
     forces       :     83.11s CPU     83.44s WALL (       1 calls)
     stress       :   3576.67s CPU   3604.79s WALL (       1 calls)

     Called by init_run:
     wfcinit      :    639.71s CPU    641.56s WALL (       1 calls)
     potinit      :      1.63s CPU      1.70s WALL (       1 calls)
     hinit0       :      1.63s CPU      1.65s WALL (       1 calls)

     Called by electrons:
     c_bands      :   5446.67s CPU   5565.88s WALL (      23 calls)
     sum_band     :    293.07s CPU    294.32s WALL (      23 calls)
     v_of_rho     :     27.06s CPU     28.48s WALL (      25 calls)
     mix_rho      :      2.77s CPU      3.41s WALL (      23 calls)

     Called by c_bands:
     init_us_2    :     29.63s CPU     45.47s WALL (     147 calls)
     cegterg      :   5339.63s CPU   5442.27s WALL (      69 calls)

     Called by sum_band:

     Called by *egterg:
     h_psi        :   4153.58s CPU   4237.02s WALL (     354 calls)
     g_psi        :      6.70s CPU      6.84s WALL (     282 calls)
     cdiaghg      :     62.86s CPU     63.72s WALL (     342 calls)

     Called by h_psi:
     h_psi:pot    :   3926.60s CPU   3931.61s WALL (     354 calls)
     h_psi:calbec :   1190.06s CPU   1191.50s WALL (     354 calls)
     vloc_psi     :   1662.58s CPU   1665.34s WALL (     354 calls)
     add_vuspsi   :   1073.95s CPU   1074.77s WALL (     354 calls)

     General routines
     calbec       :   1444.25s CPU   1529.14s WALL (     573 calls)
     fft          :      9.47s CPU      9.47s WALL (     253 calls)
     ffts         :      0.90s CPU      0.90s WALL (      23 calls)
     fftw         :   1643.20s CPU   1644.98s WALL (   62128 calls)
     fftc         :  14788.16s CPU  14821.68s WALL (  406224 calls)
     fftcw        :    127.14s CPU    128.93s WALL (    4836 calls)

     Parallel routines

     EXX routines
     exx_grid     :      0.00s CPU      0.00s WALL (       1 calls)
     exxinit      :     91.90s CPU    194.79s WALL (       4 calls)
     vexx         :  16557.81s CPU  16888.30s WALL (      12 calls)
     matcalc      :    173.18s CPU    256.60s WALL (     204 calls)
     aceupdate    :      8.35s CPU      8.73s WALL (      12 calls)
     vexxace      :    290.35s CPU    372.53s WALL (     171 calls)
     aceinit      :  16579.59s CPU  16923.31s WALL (      12 calls)

     PWSCF        :     7h26m CPU       26h 7m WALL

      37h

   This run was terminated on:   0:40:33  20Apr2020            

=------------------------------------------------------------------------------=
   JOB DONE.
=------------------------------------------------------------------------------=
