
     Program PWSCF v.6.3 starts on 19Apr2020 at 17: 2:35 

     This program is part of the open-source Quantum ESPRESSO suite
     for quantum simulation of materials; please cite
         "P. Giannozzi et al., J. Phys.:Condens. Matter 21 395502 (2009);
         "P. Giannozzi et al., J. Phys.:Condens. Matter 29 465901 (2017);
          URL http://www.quantum-espresso.org", 
     in publications or presentations arising from this work. More details at
     http://www.quantum-espresso.org/quote

     Parallel version (MPI), running on     1 processors

     MPI processes distributed on     1 nodes
     Waiting for input...
     Reading input from standard input

     Current dimensions of program PWSCF are:
     Max number of different atomic species (ntypx) = 10
     Max number of k-points (npk) =  40000
     Max angular momentum in pseudopotentials (lmaxx) =  3

     IMPORTANT: XC functional enforced from input :
     Exchange-correlation      = HSE ( 1  4 12  4 0 0)
     EXX-fraction              =        0.25
     Any further DFT definition will be discarded
     Please, verify this is what you really want

               file Ge.pbe-mt_fhi.UPF: wavefunction(s)  4d 4f renormalized
               file Si.pbe-mt_fhi.UPF: wavefunction(s)  4f renormalized
               file C.pbe-mt_fhi.UPF: wavefunction(s)  4f renormalized

     -------------------------------------------------
     Parameters for Dispersion (Grimme-D2) Correction:
     -------------------------------------------------
       atom      VdW radius       C_6     

        Ge         3.264        593.221
        Si         3.243        320.200
        C          2.744         60.710

     Subspace diagonalization in iterative solution of the eigenvalue problem:
     a serial algorithm will be used

     EXX: setup a grid of 5 q-points centered on each k-point
     (k+q)-points:
   0.0000000   0.0000000   0.0000000         1    1
   0.0000000   0.3849002   0.0000000         2    1
   0.3333333   0.5773503   0.0000000         3    1
  -0.3333333   0.1924501   0.0000000         4    1
   0.3333333   0.1924501   0.0000000         5    1

     G-vector sticks info
     --------------------
     sticks:   dense  smooth     PW     G-vecs:    dense   smooth      PW
     Sum        4429    4429   1177               388955   388955   53541



     bravais-lattice index     =            4
     lattice parameter (alat)  =      23.1302  a.u.
     unit-cell volume          =   17511.3678 (a.u.)^3
     number of atoms/cell      =           50
     number of atomic types    =            3
     number of electrons       =       200.00
     number of Kohn-Sham states=          124
     kinetic-energy cutoff     =      30.0000  Ry
     charge density cutoff     =     120.0000  Ry
     cutoff for Fock operator  =     120.0000  Ry
     convergence threshold     =      1.0E-04
     mixing beta               =       0.7000
     number of iterations used =            8  plain     mixing
     Exchange-correlation      = HSE ( 1  4 12  4 0 0)
     EXX-fraction              =        0.25

     celldm(1)=  23.130248  celldm(2)=   0.000000  celldm(3)=   1.633987
     celldm(4)=   0.000000  celldm(5)=   0.000000  celldm(6)=   0.000000

     crystal axes: (cart. coord. in units of alat)
               a(1) = (   1.000000   0.000000   0.000000 )  
               a(2) = (  -0.500000   0.866025   0.000000 )  
               a(3) = (   0.000000   0.000000   1.633987 )  

     reciprocal axes: (cart. coord. in units 2 pi/alat)
               b(1) = (  1.000000  0.577350 -0.000000 )  
               b(2) = (  0.000000  1.154701  0.000000 )  
               b(3) = (  0.000000 -0.000000  0.612000 )  


     PseudoPot. # 1 for Ge read from file:
     ./pseudo/Ge.pbe-mt_fhi.UPF
     MD5 check sum: b08ff19c3d362044f6e29226b459d86a
     Pseudo is Norm-conserving, Zval =  4.0
     Generated using FHI98PP, converted with fhi2upf.x v.5.0.2
     Using radial grid of  529 points,  3 beta functions with: 
                l(1) =   1
                l(2) =   2
                l(3) =   3

     PseudoPot. # 2 for Si read from file:
     ./pseudo/Si.pbe-mt_fhi.UPF
     MD5 check sum: 259057c2adf9952f9ced37ae3d9e311d
     Pseudo is Norm-conserving, Zval =  4.0
     Generated using FHI98PP, converted with fhi2upf.x v.5.0.2
     Using radial grid of  495 points,  3 beta functions with: 
                l(1) =   0
                l(2) =   1
                l(3) =   3

     PseudoPot. # 3 for C  read from file:
     ./pseudo/C.pbe-mt_fhi.UPF
     MD5 check sum: 058ca341f9d6d5327d9962fd88a91b65
     Pseudo is Norm-conserving, Zval =  4.0
     Generated using FHI98PP, converted with fhi2upf.x v.5.0.2
     Using radial grid of  461 points,  3 beta functions with: 
                l(1) =   0
                l(2) =   1
                l(3) =   3

     atomic species   valence    mass     pseudopotential
        Ge             4.00    72.59000     Ge( 1.00)
        Si             4.00    28.08550     Si( 1.00)
        C              4.00    12.01070     C ( 1.00)

     No symmetry found



   Cartesian axes

     site n.     atom                  positions (alat units)
         1           Ge  tau(   1) = (   0.0000000   0.1847712   0.3197712  )
         2           Ge  tau(   2) = (  -0.1666667   0.4734464   0.3197712  )
         3           Ge  tau(   3) = (  -0.3333333   0.7621215   0.3197712  )
         4           Ge  tau(   4) = (   0.3333333   0.1847712   0.3197712  )
         5           Ge  tau(   5) = (   0.1666667   0.2809954   0.2648693  )
         6           Ge  tau(   6) = (   0.1666667   0.4734464   0.3197712  )
         7           Ge  tau(   7) = (   0.0000000   0.5696705   0.2648693  )
         8           Ge  tau(   8) = (   0.0000000   0.7621215   0.3197712  )
         9           Ge  tau(   9) = (  -0.1666667   0.8583457   0.2648693  )
        10           Ge  tau(  10) = (   0.6666667   0.1847712   0.3197712  )
        11           Ge  tau(  11) = (   0.5000000   0.2809954   0.2647876  )
        12           Ge  tau(  12) = (   0.5000000   0.4734464   0.3197712  )
        13           Ge  tau(  13) = (   0.3333333   0.5696705   0.2647876  )
        14           Ge  tau(  14) = (   0.3333333   0.7621215   0.3197712  )
        15           Ge  tau(  15) = (   0.1666667   0.8583457   0.2648693  )
        16           Ge  tau(  16) = (   0.8333333   0.2809954   0.2648693  )
        17           Ge  tau(  17) = (   0.6666667   0.5696705   0.2648693  )
        18           Ge  tau(  18) = (   0.5000000   0.8583457   0.2648693  )
        19           Si  tau(  19) = (   0.0000000   0.1388889   0.0000000  )
        20           Si  tau(  20) = (  -0.1250000   0.3553952   0.0000000  )
        21           Si  tau(  21) = (  -0.2500000   0.5719016   0.0000000  )
        22           Si  tau(  22) = (  -0.3750000   0.7884079   0.0000000  )
        23           Si  tau(  23) = (   0.2500000   0.1388889   0.0000000  )
        24           C   tau(  24) = (   0.1250000   0.2110570   0.0000000  )
        25           Si  tau(  25) = (   0.1250000   0.3553952   0.0000000  )
        26           C   tau(  26) = (   0.0000000   0.4275634   0.0000000  )
        27           Si  tau(  27) = (   0.0000000   0.5719016   0.0000000  )
        28           C   tau(  28) = (  -0.1250000   0.6440697   0.0000000  )
        29           Si  tau(  29) = (  -0.1250000   0.7884079   0.0000000  )
        30           C   tau(  30) = (  -0.2500000   0.8605761   0.0000000  )
        31           Si  tau(  31) = (   0.5000000   0.1388889   0.0000000  )
        32           C   tau(  32) = (   0.3750000   0.2110570   0.0000000  )
        33           Si  tau(  33) = (   0.3750000   0.3553952   0.0000000  )
        34           C   tau(  34) = (   0.2500000   0.4275634   0.0000000  )
        35           Si  tau(  35) = (   0.2500000   0.5719016   0.0000000  )
        36           C   tau(  36) = (   0.1250000   0.6440697   0.0000000  )
        37           Si  tau(  37) = (   0.1250000   0.7884079   0.0000000  )
        38           C   tau(  38) = (   0.0000000   0.8605761   0.0000000  )
        39           Si  tau(  39) = (   0.7500000   0.1388889   0.0000000  )
        40           C   tau(  40) = (   0.6250000   0.2110570   0.0000000  )
        41           Si  tau(  41) = (   0.6250000   0.3553952   0.0000000  )
        42           C   tau(  42) = (   0.5000000   0.4275634   0.0000000  )
        43           Si  tau(  43) = (   0.5000000   0.5719016   0.0000000  )
        44           C   tau(  44) = (   0.3750000   0.6440697   0.0000000  )
        45           Si  tau(  45) = (   0.3750000   0.7884079   0.0000000  )
        46           C   tau(  46) = (   0.2500000   0.8605761   0.0000000  )
        47           C   tau(  47) = (   0.8750000   0.2110570   0.0000000  )
        48           C   tau(  48) = (   0.7500000   0.4275634   0.0000000  )
        49           C   tau(  49) = (   0.6250000   0.6440697   0.0000000  )
        50           C   tau(  50) = (   0.5000000   0.8605761   0.0000000  )

     number of k points=     5
                       cart. coord. in units 2pi/alat
        k(    1) = (   0.0000000   0.0000000   0.0000000), wk =   0.2222222
        k(    2) = (   0.0000000   0.3849002   0.0000000), wk =   0.4444444
        k(    3) = (   0.3333333   0.5773503   0.0000000), wk =   0.4444444
        k(    4) = (  -0.3333333   0.1924501   0.0000000), wk =   0.4444444
        k(    5) = (   0.3333333   0.1924501   0.0000000), wk =   0.4444444

     Dense  grid:   388955 G-vectors     FFT dimensions: (  81,  81, 135)

     Estimated max dynamical RAM per process >      10.08 GB

     Initial potential from superposition of free atoms
     Check: negative starting charge=   -0.006694

     starting charge  199.97158, renormalised to  200.00000

     negative rho (up, down):  6.695E-03 0.000E+00
     Starting wfcs are  800 randomized atomic wfcs

     total cpu time spent up to now is      658.9 secs

     Self-consistent Calculation

     iteration #  1     ecut=    30.00 Ry     beta= 0.70
     Davidson diagonalization with overlap
     ethr =  1.00E-02,  avg # of iterations =  2.0

     negative rho (up, down):  1.394E-03 0.000E+00

     total cpu time spent up to now is      890.7 secs

     total energy              =    -444.61070875 Ry
     Harris-Foulkes estimate   =    -451.60510617 Ry
     estimated scf accuracy    <      10.38261666 Ry

     iteration #  2     ecut=    30.00 Ry     beta= 0.70
     Davidson diagonalization with overlap
     ethr =  5.19E-03,  avg # of iterations =  4.8

     negative rho (up, down):  1.023E-03 0.000E+00

     total cpu time spent up to now is     1199.4 secs

     total energy              =    -436.86553457 Ry
     Harris-Foulkes estimate   =    -452.46389045 Ry
     estimated scf accuracy    <      45.41152211 Ry

     iteration #  3     ecut=    30.00 Ry     beta= 0.70
     Davidson diagonalization with overlap
     ethr =  5.19E-03,  avg # of iterations =  6.2

     negative rho (up, down):  4.248E-04 0.000E+00

     total cpu time spent up to now is     1526.5 secs

     total energy              =    -438.27226954 Ry
     Harris-Foulkes estimate   =    -456.29303799 Ry
     estimated scf accuracy    <     143.64440462 Ry

     iteration #  4     ecut=    30.00 Ry     beta= 0.70
     Davidson diagonalization with overlap
     ethr =  5.19E-03,  avg # of iterations =  4.0

     negative rho (up, down):  2.675E-04 0.000E+00

     total cpu time spent up to now is     1916.8 secs

     total energy              =    -448.51021096 Ry
     Harris-Foulkes estimate   =    -448.83416740 Ry
     estimated scf accuracy    <       1.07730454 Ry

     iteration #  5     ecut=    30.00 Ry     beta= 0.70
     Davidson diagonalization with overlap
     ethr =  5.39E-04,  avg # of iterations =  7.4

     negative rho (up, down):  5.636E-05 0.000E+00

     total cpu time spent up to now is     2382.6 secs

     total energy              =    -448.65341041 Ry
     Harris-Foulkes estimate   =    -448.71287183 Ry
     estimated scf accuracy    <       0.17767555 Ry

     iteration #  6     ecut=    30.00 Ry     beta= 0.70
     Davidson diagonalization with overlap
     ethr =  8.88E-05,  avg # of iterations =  6.8

     negative rho (up, down):  4.821E-07 0.000E+00

     total cpu time spent up to now is     2790.1 secs

     total energy              =    -448.65191448 Ry
     Harris-Foulkes estimate   =    -448.69063227 Ry
     estimated scf accuracy    <       0.09745510 Ry

     iteration #  7     ecut=    30.00 Ry     beta= 0.70
     Davidson diagonalization with overlap
     ethr =  4.87E-05,  avg # of iterations =  3.8

     total cpu time spent up to now is     3150.7 secs

     total energy              =    -448.66567839 Ry
     Harris-Foulkes estimate   =    -448.68607055 Ry
     estimated scf accuracy    <       0.06726488 Ry

     iteration #  8     ecut=    30.00 Ry     beta= 0.70
     Davidson diagonalization with overlap
     ethr =  3.36E-05,  avg # of iterations =  2.4

     total cpu time spent up to now is     3481.5 secs

     total energy              =    -448.67586259 Ry
     Harris-Foulkes estimate   =    -448.67655748 Ry
     estimated scf accuracy    <       0.00164112 Ry

     iteration #  9     ecut=    30.00 Ry     beta= 0.70
     Davidson diagonalization with overlap
     ethr =  8.21E-07,  avg # of iterations =  9.2

     total cpu time spent up to now is     4105.4 secs

     total energy              =    -448.67650203 Ry
     Harris-Foulkes estimate   =    -448.67700812 Ry
     estimated scf accuracy    <       0.00138028 Ry

     iteration # 10     ecut=    30.00 Ry     beta= 0.70
     Davidson diagonalization with overlap
     ethr =  6.90E-07,  avg # of iterations =  2.6

     total cpu time spent up to now is     4446.6 secs

     total energy              =    -448.67668786 Ry
     Harris-Foulkes estimate   =    -448.67684927 Ry
     estimated scf accuracy    <       0.00058214 Ry

     iteration # 11     ecut=    30.00 Ry     beta= 0.70
     Davidson diagonalization with overlap
     ethr =  2.91E-07,  avg # of iterations =  2.0

     total cpu time spent up to now is     4756.2 secs

     total energy              =    -448.67671724 Ry
     Harris-Foulkes estimate   =    -448.67679209 Ry
     estimated scf accuracy    <       0.00017258 Ry

     iteration # 12     ecut=    30.00 Ry     beta= 0.70
     Davidson diagonalization with overlap
     ethr =  8.63E-08,  avg # of iterations =  2.2

     total cpu time spent up to now is     5134.9 secs

     End of self-consistent calculation

          k = 0.0000 0.0000 0.0000 ( 48515 PWs)   bands (ev):

   -15.9089 -14.9157 -14.8963 -14.8960 -14.8628 -14.8626 -14.8450 -13.1642
   -13.1525 -13.1012 -13.1012 -13.0906 -13.0904 -12.8804 -12.8801 -12.8760
   -12.0232 -10.9104 -10.9008 -10.9005 -10.8849 -10.8846 -10.8741  -9.9429
    -9.9428  -9.9403  -9.1359  -9.1347  -9.0520  -9.0519  -8.7025  -8.7022
    -8.6934  -8.6932  -8.6626  -8.6585  -6.9379  -6.9330  -6.9328  -6.9268
    -6.9264  -6.9157  -6.6980  -6.6966  -6.6720  -6.6629  -6.6615  -6.6526
    -6.5258  -6.4988  -6.4987  -6.4740  -6.4739  -6.4640  -6.1493  -4.9830
    -4.9630  -4.9624  -4.9286  -4.9281  -4.9101  -4.8059  -4.8058  -4.8052
    -4.5856  -4.5853  -4.1350  -4.1309  -4.1308  -4.1156  -4.1155  -4.1077
    -3.9801  -3.2212  -3.2211  -3.2201  -3.2142  -3.0015  -3.0007  -2.8548
    -2.8543  -2.7939  -2.7858  -2.7840  -2.6103  -2.6084  -2.6078  -2.5789
    -2.5609  -2.5600  -2.3548  -2.3547  -2.3458  -2.2858  -2.2722  -2.2722
    -1.3970  -1.3969  -0.7409  -0.7404  -0.6451  -0.6160  -0.5957  -0.1126
    -0.1112  -0.0926   0.3601   0.3641   0.4146   0.6289   0.6876   0.6895
     1.0986   1.1023   1.1184   1.1925   1.4547   1.4567   1.5701   1.5845
     1.5888   1.6700   1.7780   1.7859

          k = 0.0000 0.3849 0.0000 ( 48609 PWs)   bands (ev):

   -15.7927 -15.4443 -15.1024 -15.1011 -14.4485 -14.4457 -14.1357 -13.8343
   -13.8319 -13.3296 -13.0727 -13.0633 -12.9474 -12.9397 -12.5186 -12.5181
   -11.8925 -11.5050 -11.1284 -11.1276 -10.4400 -10.4396 -10.2089  -9.8120
    -9.8114  -9.7017  -9.6994  -9.3332  -9.2816  -9.2737  -9.1161  -9.1160
    -8.3233  -8.3233  -8.0611  -8.0016  -7.9986  -7.9881  -7.6139  -7.6133
    -7.2727  -7.2700  -7.2165  -7.2131  -6.4002  -6.3993  -6.1368  -6.1353
    -6.0494  -5.8746  -5.8165  -5.8104  -5.7129  -5.7053  -5.2360  -5.2353
    -5.1693  -5.1434  -5.1340  -4.9761  -4.7243  -4.6908  -4.6892  -4.5109
    -4.5086  -4.4700  -4.2683  -4.2676  -4.2389  -4.1952  -4.1951  -4.1529
    -3.8113  -3.8101  -3.7362  -3.7163  -3.3722  -3.3717  -3.3630  -3.2760
    -3.0288  -3.0054  -2.8870  -2.8598  -2.8523  -2.7707  -2.7628  -2.7209
    -2.4612  -2.4263  -2.4254  -2.2768  -2.2626  -2.1581  -1.8682  -1.8664
    -1.8238  -1.6512  -1.2840  -1.2775  -0.3033  -0.2704  -0.0766   0.0134
     0.0175   0.5405   0.5729   0.6215   0.6258   0.7746   0.9322   1.0314
     1.1568   1.2402   1.2830   1.2975   1.5214   1.5531   1.6527   1.6761
     1.7106   1.8189   1.8398   2.1636

          k = 0.3333 0.5774 0.0000 ( 48552 PWs)   bands (ev):

   -15.5931 -15.5495 -15.5346 -14.5531 -14.5519 -14.5506 -13.6943 -13.6731
   -13.6704 -13.6349 -13.6327 -13.6161 -12.6872 -12.6373 -12.6236 -12.2855
   -11.6428 -11.6391 -11.6159 -10.5286 -10.5271 -10.5260  -9.9614  -9.9451
    -9.9410  -9.6823  -9.6549  -9.6331  -9.2492  -8.6989  -8.6909  -8.6809
    -8.6652  -8.6534  -8.6470  -8.3011  -8.2958  -8.2813  -7.7331  -7.3784
    -7.3744  -7.3707  -6.8399  -6.8378  -6.8374  -6.2874  -6.2782  -6.2577
    -5.8963  -5.8556  -5.8530  -5.0770  -5.0740  -5.0620  -5.0462  -5.0383
    -5.0360  -5.0045  -5.0041  -5.0023  -4.8837  -4.8738  -4.8638  -4.6145
    -4.6111  -4.6090  -4.5605  -4.5459  -4.5390  -3.7901  -3.7819  -3.7740
    -3.7506  -3.7479  -3.7381  -3.6930  -3.6924  -3.6638  -3.6615  -3.6363
    -3.6336  -3.3682  -3.3554  -3.3487  -2.7236  -2.7204  -2.7131  -2.5279
    -2.4647  -2.3877  -2.2043  -2.2037  -2.1942  -1.9636  -1.9446  -1.8863
    -1.8670  -1.4868  -1.4845  -1.4839  -0.3588  -0.2374  -0.1134  -0.0968
     0.0830   0.4527   0.8110   0.8655   1.1631   1.1725   1.1945   1.2731
     1.3645   1.4118   1.4505   1.4549   1.4812   1.4847   1.5637   1.8384
     1.8720   1.8808   1.9421   1.9788

          k =-0.3333 0.1925 0.0000 ( 48609 PWs)   bands (ev):

   -15.7927 -15.4443 -15.1024 -15.1011 -14.4485 -14.4458 -14.1357 -13.8342
   -13.8320 -13.3296 -13.0732 -13.0629 -12.9477 -12.9393 -12.5185 -12.5182
   -11.8925 -11.5050 -11.1284 -11.1276 -10.4400 -10.4396 -10.2089  -9.8120
    -9.8114  -9.7018  -9.6993  -9.3331  -9.2816  -9.2738  -9.1161  -9.1159
    -8.3233  -8.3233  -8.0612  -8.0016  -7.9986  -7.9882  -7.6139  -7.6133
    -7.2728  -7.2701  -7.2164  -7.2130  -6.4002  -6.3993  -6.1370  -6.1352
    -6.0494  -5.8746  -5.8165  -5.8104  -5.7129  -5.7053  -5.2359  -5.2354
    -5.1693  -5.1435  -5.1339  -4.9761  -4.7243  -4.6907  -4.6892  -4.5109
    -4.5086  -4.4700  -4.2683  -4.2676  -4.2388  -4.1952  -4.1951  -4.1530
    -3.8113  -3.8101  -3.7363  -3.7163  -3.3721  -3.3718  -3.3629  -3.2760
    -3.0286  -3.0061  -2.8853  -2.8614  -2.8523  -2.7696  -2.7638  -2.7208
    -2.4612  -2.4264  -2.4253  -2.2769  -2.2626  -2.1580  -1.8683  -1.8663
    -1.8238  -1.6512  -1.2840  -1.2775  -0.3013  -0.2726  -0.0771   0.0138
     0.0179   0.5415   0.5727   0.6207   0.6258   0.7750   0.9295   1.0329
     1.1569   1.2491   1.2782   1.2930   1.5303   1.5466   1.6494   1.6777
     1.7104   1.8203   1.8389   2.1641

          k = 0.3333 0.1925 0.0000 ( 48609 PWs)   bands (ev):

   -15.7927 -15.4443 -15.1024 -15.1011 -14.4485 -14.4458 -14.1357 -13.8342
   -13.8320 -13.3296 -13.0732 -13.0629 -12.9477 -12.9393 -12.5185 -12.5182
   -11.8925 -11.5050 -11.1283 -11.1277 -10.4400 -10.4396 -10.2089  -9.8120
    -9.8114  -9.7018  -9.6993  -9.3332  -9.2816  -9.2738  -9.1161  -9.1159
    -8.3233  -8.3233  -8.0612  -8.0016  -7.9986  -7.9881  -7.6139  -7.6133
    -7.2728  -7.2701  -7.2164  -7.2130  -6.4002  -6.3993  -6.1370  -6.1352
    -6.0494  -5.8747  -5.8165  -5.8104  -5.7129  -5.7053  -5.2359  -5.2354
    -5.1693  -5.1435  -5.1340  -4.9761  -4.7243  -4.6907  -4.6892  -4.5109
    -4.5086  -4.4700  -4.2683  -4.2676  -4.2388  -4.1952  -4.1951  -4.1530
    -3.8113  -3.8101  -3.7363  -3.7163  -3.3721  -3.3718  -3.3629  -3.2760
    -3.0285  -3.0060  -2.8854  -2.8615  -2.8522  -2.7696  -2.7639  -2.7208
    -2.4612  -2.4264  -2.4252  -2.2769  -2.2625  -2.1580  -1.8683  -1.8663
    -1.8238  -1.6512  -1.2840  -1.2775  -0.3014  -0.2727  -0.0771   0.0138
     0.0181   0.5417   0.5727   0.6208   0.6257   0.7749   0.9294   1.0329
     1.1570   1.2490   1.2781   1.2930   1.5303   1.5468   1.6495   1.6776
     1.7104   1.8203   1.8389   2.1641

     highest occupied, lowest unoccupied level (ev):    -0.7404   -0.6451

!    total energy              =    -448.67674148 Ry
     Harris-Foulkes estimate   =    -448.67676402 Ry
     estimated scf accuracy    <       0.00002906 Ry

     convergence has been achieved in  12 iterations

     Using ACE for calculation of exact exchange

     EXX grid:   388955 G-vectors     FFT dimensions: (  81,  81, 135)

     EXX: now go back to refine exchange calculation

     total cpu time spent up to now is    12505.7 secs

     Self-consistent Calculation

     iteration #  1     ecut=    30.00 Ry     beta= 0.70
     Davidson diagonalization with overlap
     ethr =  8.63E-08,  avg # of iterations =  8.2

     total cpu time spent up to now is    13396.1 secs

     total energy              =    -448.45715206 Ry
     Harris-Foulkes estimate   =    -448.46047386 Ry
     estimated scf accuracy    <       0.00704917 Ry

     iteration #  2     ecut=    30.00 Ry     beta= 0.70
     Davidson diagonalization with overlap
     ethr =  3.52E-06,  avg # of iterations =  4.0

     total cpu time spent up to now is    13821.2 secs

     total energy              =    -448.45685621 Ry
     Harris-Foulkes estimate   =    -448.45949155 Ry
     estimated scf accuracy    <       0.00442244 Ry

     iteration #  3     ecut=    30.00 Ry     beta= 0.70
     Davidson diagonalization with overlap
     ethr =  2.21E-06,  avg # of iterations =  4.0

     total cpu time spent up to now is    14249.1 secs

     total energy              =    -448.45791607 Ry
     Harris-Foulkes estimate   =    -448.45888305 Ry
     estimated scf accuracy    <       0.00226288 Ry

     iteration #  4     ecut=    30.00 Ry     beta= 0.70
     Davidson diagonalization with overlap
     ethr =  1.13E-06,  avg # of iterations =  3.0

     total cpu time spent up to now is    14508.6 secs

     total energy              =    -448.45830759 Ry
     Harris-Foulkes estimate   =    -448.45852472 Ry
     estimated scf accuracy    <       0.00051003 Ry

     iteration #  5     ecut=    30.00 Ry     beta= 0.70
     Davidson diagonalization with overlap
     ethr =  2.55E-07,  avg # of iterations =  2.0

     total cpu time spent up to now is    14809.0 secs

     End of self-consistent calculation

          k = 0.0000 0.0000 0.0000 ( 48515 PWs)   bands (ev):

   -17.9825 -16.8971 -16.8780 -16.8778 -16.8456 -16.8455 -16.8273 -15.0055
   -14.9956 -14.9455 -14.9454 -14.9342 -14.9339 -14.7191 -14.7190 -14.7167
   -13.5689 -12.3138 -12.2996 -12.2993 -12.2839 -12.2836 -12.2682 -11.2909
   -11.2907 -11.2878 -10.3198 -10.3181 -10.2661 -10.2661  -9.9447  -9.9445
    -9.9389  -9.9387  -9.8934  -9.8902  -7.8840  -7.8837  -7.8828  -7.8729
    -7.8726  -7.8612  -7.7192  -7.7173  -7.6999  -7.6803  -7.6784  -7.6641
    -7.5620  -7.5362  -7.5361  -7.5106  -7.5105  -7.5009  -7.1214  -5.7616
    -5.7430  -5.7427  -5.7133  -5.7129  -5.6971  -5.6902  -5.6902  -5.6898
    -5.2454  -5.2453  -4.9483  -4.9438  -4.9437  -4.9274  -4.9272  -4.9203
    -4.6233  -3.9389  -3.9388  -3.6998  -3.6993  -3.5191  -3.5179  -3.3538
    -3.3531  -3.2930  -3.2890  -3.2878  -3.1392  -3.1365  -3.1360  -3.1087
    -3.0823  -3.0809  -2.7100  -2.7097  -2.7087  -2.6464  -2.6368  -2.6365
    -1.8343  -1.8342  -0.9619  -0.9611  -0.5856  -0.5495  -0.3638   0.0224
     0.0245   0.0536   0.5342   0.5390   0.5839   0.8704   0.9284   0.9304
     1.3745   1.3783   1.3870   1.4431   1.7884   1.7911   1.9072   1.9619
     1.9691   2.0671   2.1608   2.1696

          k = 0.0000 0.3849 0.0000 ( 48609 PWs)   bands (ev):

   -17.8636 -17.4867 -17.1115 -17.1097 -16.3944 -16.3921 -16.0542 -15.7342
   -15.7324 -15.1948 -14.9225 -14.9108 -14.7937 -14.7845 -14.3357 -14.3356
   -13.4112 -12.9895 -12.5525 -12.5517 -11.7708 -11.7705 -11.5186 -11.1008
   -11.1002 -11.0353 -11.0325 -10.6416 -10.5634 -10.5573 -10.4067 -10.4065
    -9.4018  -9.4016  -9.2382  -9.1885  -9.1858  -9.1235  -8.6591  -8.6583
    -8.3997  -8.3970  -8.3075  -8.3030  -7.2415  -7.2396  -7.0942  -7.0912
    -7.0159  -6.7766  -6.7732  -6.7289  -6.6327  -6.6203  -6.1340  -6.1334
    -5.9709  -5.9700  -5.8570  -5.8058  -5.6035  -5.5347  -5.5338  -5.3365
    -5.2355  -5.2284  -4.9838  -4.9800  -4.8943  -4.8676  -4.8675  -4.7963
    -4.4772  -4.4719  -4.4230  -4.4225  -4.0909  -3.9085  -3.9081  -3.8353
    -3.5386  -3.5124  -3.4339  -3.3865  -3.3611  -3.2387  -3.2346  -3.1787
    -2.8919  -2.8172  -2.8163  -2.7134  -2.6975  -2.6098  -2.1634  -2.1578
    -2.1269  -2.0734  -1.4981  -1.4916  -0.2466  -0.2096  -0.0021   0.1160
     0.1248   0.7596   0.8159   0.8290   0.8378   1.0055   1.2215   1.3297
     1.4488   1.5504   1.5535   1.5921   1.8148   1.8293   1.9424   1.9721
     2.0423   2.1590   2.1775   2.6310

          k = 0.3333 0.5774 0.0000 ( 48552 PWs)   bands (ev):

   -17.6489 -17.5989 -17.5893 -16.5134 -16.5117 -16.5106 -15.5844 -15.5616
   -15.5592 -15.5204 -15.5185 -15.4994 -14.5253 -14.4696 -14.4578 -14.0976
   -13.1328 -13.1212 -13.1022 -11.8821 -11.8770 -11.8766 -11.2507 -11.2331
   -11.2321 -11.0008 -10.9734 -10.9474 -10.5114  -9.9622  -9.9540  -9.9426
    -9.9266  -9.9126  -9.9069  -9.4105  -9.4040  -9.3896  -8.8914  -8.3508
    -8.3475  -8.3419  -7.9138  -7.9120  -7.9116  -7.2626  -7.2511  -7.2302
    -6.8139  -6.7690  -6.7623  -5.9583  -5.9558  -5.9423  -5.9251  -5.9131
    -5.9100  -5.8531  -5.8530  -5.8492  -5.5311  -5.5287  -5.5228  -5.3623
    -5.3617  -5.3583  -5.3535  -5.3503  -5.3455  -4.4357  -4.4324  -4.4075
    -4.4028  -4.4023  -4.3652  -4.2762  -4.2735  -4.2551  -4.2513  -4.2419
    -4.2291  -3.9485  -3.9413  -3.9317  -3.1784  -3.1713  -3.1676  -3.0134
    -2.9505  -2.8610  -2.6301  -2.6259  -2.6157  -2.3904  -2.2515  -2.1920
    -2.1759  -1.7412  -1.7368  -1.7357  -0.3069  -0.1550  -0.0491  -0.0123
     0.2229   0.6504   1.1049   1.1195   1.4431   1.4490   1.4708   1.5610
     1.6331   1.6818   1.7251   1.7275   1.7335   1.7447   1.8721   2.1919
     2.2108   2.2461   2.2897   2.3757

          k =-0.3333 0.1925 0.0000 ( 48609 PWs)   bands (ev):

   -17.8636 -17.4867 -17.1116 -17.1096 -16.3944 -16.3921 -16.0542 -15.7341
   -15.7324 -15.1948 -14.9229 -14.9104 -14.7939 -14.7844 -14.3357 -14.3355
   -13.4112 -12.9895 -12.5525 -12.5517 -11.7708 -11.7706 -11.5185 -11.1008
   -11.1002 -11.0354 -11.0323 -10.6417 -10.5634 -10.5573 -10.4066 -10.4065
    -9.4018  -9.4016  -9.2382  -9.1885  -9.1858  -9.1236  -8.6590  -8.6583
    -8.3997  -8.3970  -8.3075  -8.3029  -7.2415  -7.2395  -7.0944  -7.0911
    -7.0159  -6.7766  -6.7731  -6.7289  -6.6327  -6.6203  -6.1339  -6.1335
    -5.9709  -5.9700  -5.8570  -5.8058  -5.6034  -5.5346  -5.5339  -5.3365
    -5.2354  -5.2284  -4.9838  -4.9801  -4.8943  -4.8676  -4.8675  -4.7962
    -4.4772  -4.4719  -4.4230  -4.4225  -4.0908  -3.9083  -3.9083  -3.8353
    -3.5379  -3.5135  -3.4339  -3.3842  -3.3633  -3.2374  -3.2357  -3.1786
    -2.8919  -2.8173  -2.8162  -2.7135  -2.6975  -2.6098  -2.1633  -2.1579
    -2.1269  -2.0733  -1.4981  -1.4915  -0.2447  -0.2121  -0.0025   0.1202
     0.1216   0.7606   0.8159   0.8309   0.8347   1.0059   1.2199   1.3305
     1.4488   1.5500   1.5621   1.5836   1.8223   1.8245   1.9391   1.9732
     2.0419   2.1609   2.1762   2.6324

          k = 0.3333 0.1925 0.0000 ( 48609 PWs)   bands (ev):

   -17.8636 -17.4867 -17.1116 -17.1097 -16.3944 -16.3921 -16.0542 -15.7341
   -15.7324 -15.1948 -14.9229 -14.9105 -14.7939 -14.7844 -14.3357 -14.3355
   -13.4112 -12.9895 -12.5525 -12.5517 -11.7708 -11.7706 -11.5185 -11.1008
   -11.1002 -11.0354 -11.0323 -10.6417 -10.5634 -10.5573 -10.4066 -10.4064
    -9.4018  -9.4016  -9.2382  -9.1885  -9.1858  -9.1236  -8.6590  -8.6583
    -8.3997  -8.3970  -8.3075  -8.3029  -7.2415  -7.2396  -7.0944  -7.0911
    -7.0159  -6.7766  -6.7731  -6.7289  -6.6327  -6.6203  -6.1339  -6.1335
    -5.9709  -5.9700  -5.8570  -5.8058  -5.6034  -5.5346  -5.5339  -5.3365
    -5.2355  -5.2284  -4.9838  -4.9801  -4.8943  -4.8676  -4.8674  -4.7963
    -4.4772  -4.4719  -4.4230  -4.4225  -4.0908  -3.9084  -3.9082  -3.8352
    -3.5378  -3.5135  -3.4339  -3.3842  -3.3633  -3.2374  -3.2358  -3.1786
    -2.8919  -2.8173  -2.8162  -2.7135  -2.6974  -2.6098  -2.1633  -2.1579
    -2.1269  -2.0733  -1.4981  -1.4915  -0.2447  -0.2121  -0.0026   0.1202
     0.1217   0.7608   0.8159   0.8310   0.8344   1.0058   1.2198   1.3304
     1.4488   1.5501   1.5621   1.5835   1.8225   1.8244   1.9392   1.9731
     2.0419   2.1609   2.1762   2.6323

     highest occupied, lowest unoccupied level (ev):    -0.9611   -0.5856

!    total energy              =    -448.45838272 Ry
     Harris-Foulkes estimate   =    -448.45842591 Ry
     estimated scf accuracy    <       0.00004739 Ry

     convergence has been achieved in   5 iterations

     Using ACE for calculation of exact exchange

     total energy              =    -448.46289484 Ry
     Harris-Foulkes estimate   =    -448.46293803 Ry
     est. exchange err (dexx)  =       0.00451212 Ry
     - averaged Fock potential =      48.74308064 Ry
     + Fock energy (ACE)       =     -24.40258419 Ry

     EXX: now go back to refine exchange calculation

     total cpu time spent up to now is    22622.9 secs

     Self-consistent Calculation

     iteration #  1     ecut=    30.00 Ry     beta= 0.70
     Davidson diagonalization with overlap
     ethr =  2.55E-07,  avg # of iterations =  4.4

     total cpu time spent up to now is    23169.3 secs

     total energy              =    -448.46322570 Ry
     Harris-Foulkes estimate   =    -448.46378882 Ry
     estimated scf accuracy    <       0.00072872 Ry

     iteration #  2     ecut=    30.00 Ry     beta= 0.70
     Davidson diagonalization with overlap
     ethr =  3.64E-07,  avg # of iterations =  3.0

     total cpu time spent up to now is    23612.8 secs

     total energy              =    -448.46295147 Ry
     Harris-Foulkes estimate   =    -448.46440348 Ry
     estimated scf accuracy    <       0.00428384 Ry

     iteration #  3     ecut=    30.00 Ry     beta= 0.70
     Davidson diagonalization with overlap
     ethr =  3.64E-07,  avg # of iterations =  3.0

     total cpu time spent up to now is    24010.7 secs

     End of self-consistent calculation

          k = 0.0000 0.0000 0.0000 ( 48515 PWs)   bands (ev):

   -17.9716 -16.8854 -16.8665 -16.8664 -16.8356 -16.8355 -16.8180 -14.9935
   -14.9843 -14.9394 -14.9394 -14.9247 -14.9243 -14.7111 -14.7109 -14.7097
   -13.5663 -12.3141 -12.2996 -12.2992 -12.2810 -12.2806 -12.2652 -11.2784
   -11.2783 -11.2755 -10.3079 -10.3065 -10.2706 -10.2706  -9.9350  -9.9347
    -9.9304  -9.9302  -9.8823  -9.8791  -7.8819  -7.8774  -7.8764  -7.8687
    -7.8680  -7.8518  -7.7108  -7.7087  -7.6945  -7.6716  -7.6694  -7.6598
    -7.5522  -7.5274  -7.5274  -7.5029  -7.5029  -7.4938  -7.1109  -5.7506
    -5.7329  -5.7323  -5.7057  -5.7051  -5.6902  -5.6902  -5.6900  -5.6898
    -5.2544  -5.2542  -4.9478  -4.9435  -4.9434  -4.9274  -4.9273  -4.9203
    -4.6214  -3.9405  -3.9404  -3.6914  -3.6892  -3.5231  -3.5218  -3.3549
    -3.3545  -3.2940  -3.2886  -3.2869  -3.1560  -3.1551  -3.1532  -3.1239
    -3.0935  -3.0916  -2.7154  -2.7145  -2.7087  -2.6550  -2.6401  -2.6393
    -1.8557  -1.8557  -0.9935  -0.9926  -0.5528  -0.5161  -0.3351   0.0376
     0.0393   0.0660   0.5444   0.5489   0.5968   0.8846   0.9434   0.9457
     1.3868   1.3909   1.4026   1.4489   1.8017   1.8044   1.9163   1.9759
     1.9830   2.0879   2.1739   2.1824

          k = 0.0000 0.3849 0.0000 ( 48609 PWs)   bands (ev):

   -17.8528 -17.4758 -17.1010 -17.0995 -16.3848 -16.3824 -16.0451 -15.7248
   -15.7230 -15.1865 -14.9134 -14.9033 -14.7853 -14.7776 -14.3287 -14.3287
   -13.4087 -12.9877 -12.5507 -12.5498 -11.7684 -11.7680 -11.5160 -11.0983
   -11.0977 -11.0227 -11.0203 -10.6293 -10.5512 -10.5457 -10.3950 -10.3950
    -9.3975  -9.3973  -9.2277  -9.1793  -9.1766  -9.1194  -8.6547  -8.6539
    -8.3899  -8.3872  -8.2984  -8.2940  -7.2362  -7.2343  -7.0896  -7.0867
    -7.0063  -6.7704  -6.7673  -6.7213  -6.6288  -6.6159  -6.1326  -6.1320
    -5.9632  -5.9621  -5.8521  -5.8025  -5.6033  -5.5335  -5.5326  -5.3362
    -5.2292  -5.2224  -4.9838  -4.9801  -4.8890  -4.8740  -4.8740  -4.7908
    -4.4783  -4.4720  -4.4206  -4.4203  -4.0925  -3.9180  -3.9175  -3.8346
    -3.5408  -3.5148  -3.4469  -3.3919  -3.3650  -3.2450  -3.2395  -3.1827
    -2.8965  -2.8166  -2.8152  -2.7197  -2.7040  -2.6256  -2.1635  -2.1568
    -2.1248  -2.0884  -1.4981  -1.4914  -0.2367  -0.2014   0.0031   0.1247
     0.1316   0.7734   0.8299   0.8438   0.8498   1.0213   1.2367   1.3464
     1.4627   1.5589   1.5689   1.6063   1.8247   1.8402   1.9524   1.9799
     2.0534   2.1719   2.1874   2.6438

          k = 0.3333 0.5774 0.0000 ( 48552 PWs)   bands (ev):

   -17.6362 -17.5923 -17.5764 -16.5037 -16.5022 -16.5006 -15.5745 -15.5532
   -15.5491 -15.5130 -15.5094 -15.4918 -14.5168 -14.4658 -14.4487 -14.0914
   -13.1270 -13.1261 -13.0967 -11.8774 -11.8760 -11.8758 -11.2497 -11.2326
   -11.2253 -10.9882 -10.9591 -10.9366 -10.4983  -9.9508  -9.9423  -9.9311
    -9.9152  -9.9016  -9.8953  -9.4074  -9.4014  -9.3846  -8.8801  -8.3448
    -8.3429  -8.3393  -7.9060  -7.9042  -7.9038  -7.2568  -7.2484  -7.2256
    -6.8028  -6.7578  -6.7574  -5.9561  -5.9533  -5.9401  -5.9238  -5.9122
    -5.9088  -5.8520  -5.8512  -5.8479  -5.5264  -5.5251  -5.5172  -5.3602
    -5.3555  -5.3530  -5.3479  -5.3464  -5.3441  -4.4350  -4.4349  -4.4061
    -4.4034  -4.3994  -4.3638  -4.2906  -4.2745  -4.2593  -4.2560  -4.2404
    -4.2321  -3.9549  -3.9450  -3.9337  -3.1839  -3.1712  -3.1682  -3.0180
    -2.9584  -2.8642  -2.6395  -2.6387  -2.6290  -2.4012  -2.2517  -2.1889
    -2.1761  -1.7370  -1.7361  -1.7357  -0.2965  -0.1453  -0.0455  -0.0061
     0.2341   0.6629   1.1257   1.1345   1.4567   1.4581   1.4834   1.5727
     1.6403   1.6944   1.7329   1.7358   1.7414   1.7555   1.8856   2.2007
     2.2209   2.2553   2.3027   2.3881

          k =-0.3333 0.1925 0.0000 ( 48609 PWs)   bands (ev):

   -17.8528 -17.4758 -17.1010 -17.0994 -16.3848 -16.3825 -16.0451 -15.7248
   -15.7230 -15.1865 -14.9141 -14.9026 -14.7858 -14.7772 -14.3288 -14.3287
   -13.4087 -12.9877 -12.5507 -12.5497 -11.7684 -11.7680 -11.5160 -11.0983
   -11.0977 -11.0229 -11.0201 -10.6293 -10.5512 -10.5458 -10.3950 -10.3949
    -9.3975  -9.3973  -9.2278  -9.1793  -9.1766  -9.1195  -8.6547  -8.6539
    -8.3899  -8.3872  -8.2983  -8.2939  -7.2361  -7.2343  -7.0898  -7.0866
    -7.0063  -6.7704  -6.7673  -6.7212  -6.6288  -6.6159  -6.1325  -6.1321
    -5.9632  -5.9621  -5.8521  -5.8025  -5.6033  -5.5335  -5.5326  -5.3361
    -5.2292  -5.2224  -4.9838  -4.9802  -4.8889  -4.8741  -4.8739  -4.7909
    -4.4782  -4.4721  -4.4206  -4.4203  -4.0924  -3.9178  -3.9177  -3.8346
    -3.5404  -3.5159  -3.4470  -3.3892  -3.3670  -3.2437  -3.2409  -3.1827
    -2.8965  -2.8167  -2.8151  -2.7199  -2.7039  -2.6256  -2.1634  -2.1570
    -2.1247  -2.0883  -1.4981  -1.4913  -0.2344  -0.2038   0.0027   0.1275
     0.1293   0.7746   0.8300   0.8442   0.8481   1.0214   1.2353   1.3467
     1.4628   1.5586   1.5777   1.5982   1.8334   1.8340   1.9493   1.9807
     2.0531   2.1736   2.1862   2.6455

          k = 0.3333 0.1925 0.0000 ( 48609 PWs)   bands (ev):

   -17.8528 -17.4758 -17.1010 -17.0995 -16.3848 -16.3824 -16.0451 -15.7248
   -15.7230 -15.1865 -14.9140 -14.9027 -14.7858 -14.7773 -14.3288 -14.3287
   -13.4087 -12.9877 -12.5507 -12.5498 -11.7685 -11.7680 -11.5160 -11.0983
   -11.0977 -11.0229 -11.0201 -10.6293 -10.5512 -10.5458 -10.3950 -10.3949
    -9.3975  -9.3973  -9.2278  -9.1793  -9.1766  -9.1195  -8.6547  -8.6539
    -8.3899  -8.3872  -8.2983  -8.2939  -7.2362  -7.2343  -7.0898  -7.0866
    -7.0063  -6.7704  -6.7673  -6.7213  -6.6288  -6.6159  -6.1325  -6.1321
    -5.9632  -5.9621  -5.8521  -5.8025  -5.6033  -5.5335  -5.5326  -5.3361
    -5.2292  -5.2224  -4.9838  -4.9802  -4.8889  -4.8741  -4.8739  -4.7909
    -4.4782  -4.4721  -4.4206  -4.4203  -4.0925  -3.9179  -3.9176  -3.8346
    -3.5403  -3.5158  -3.4469  -3.3893  -3.3671  -3.2437  -3.2409  -3.1826
    -2.8966  -2.8167  -2.8150  -2.7199  -2.7039  -2.6256  -2.1635  -2.1570
    -2.1248  -2.0883  -1.4981  -1.4913  -0.2346  -0.2038   0.0027   0.1274
     0.1296   0.7747   0.8301   0.8442   0.8478   1.0214   1.2353   1.3467
     1.4628   1.5586   1.5776   1.5980   1.8336   1.8340   1.9494   1.9806
     2.0531   2.1737   2.1862   2.6453

     highest occupied, lowest unoccupied level (ev):    -0.9926   -0.5528

!    total energy              =    -448.46361009 Ry
     Harris-Foulkes estimate   =    -448.46364781 Ry
     estimated scf accuracy    <       0.00004281 Ry

     convergence has been achieved in   3 iterations

     Using ACE for calculation of exact exchange

     total energy              =    -448.46374758 Ry
     Harris-Foulkes estimate   =    -448.46378530 Ry
     est. exchange err (dexx)  =       0.00013749 Ry
     - averaged Fock potential =      48.81538604 Ry
     + Fock energy (ACE)       =     -24.41293934 Ry

     EXX: now go back to refine exchange calculation

     total cpu time spent up to now is    29370.6 secs

     Self-consistent Calculation

     iteration #  1     ecut=    30.00 Ry     beta= 0.70
     Davidson diagonalization with overlap
     ethr =  3.64E-07,  avg # of iterations =  3.2

     total cpu time spent up to now is    29627.3 secs

     total energy              =    -448.46351240 Ry
     Harris-Foulkes estimate   =    -448.46389676 Ry
     estimated scf accuracy    <       0.00044872 Ry

     iteration #  2     ecut=    30.00 Ry     beta= 0.70
     Davidson diagonalization with overlap
     ethr =  2.24E-07,  avg # of iterations =  3.0

     total cpu time spent up to now is    29878.3 secs

     total energy              =    -448.46335486 Ry
     Harris-Foulkes estimate   =    -448.46432900 Ry
     estimated scf accuracy    <       0.00288832 Ry

     iteration #  3     ecut=    30.00 Ry     beta= 0.70
     Davidson diagonalization with overlap
     ethr =  2.24E-07,  avg # of iterations =  3.0

     total cpu time spent up to now is    30103.6 secs

     End of self-consistent calculation

          k = 0.0000 0.0000 0.0000 ( 48515 PWs)   bands (ev):

   -17.9707 -16.8854 -16.8660 -16.8659 -16.8342 -16.8342 -16.8161 -14.9952
   -14.9849 -14.9363 -14.9363 -14.9244 -14.9241 -14.7105 -14.7104 -14.7085
   -13.5664 -12.3138 -12.2988 -12.2985 -12.2822 -12.2818 -12.2660 -11.2776
   -11.2775 -11.2744 -10.3054 -10.3039 -10.2733 -10.2732  -9.9351  -9.9348
    -9.9281  -9.9279  -9.8825  -9.8792  -7.8779  -7.8775  -7.8767  -7.8683
    -7.8678  -7.8558  -7.7117  -7.7098  -7.6916  -7.6726  -7.6707  -7.6571
    -7.5525  -7.5275  -7.5274  -7.5019  -7.5019  -7.4923  -7.1099  -5.7508
    -5.7325  -5.7321  -5.7043  -5.7039  -5.6911  -5.6911  -5.6906  -5.6881
    -5.2558  -5.2556  -4.9489  -4.9447  -4.9446  -4.9280  -4.9278  -4.9208
    -4.6222  -3.9414  -3.9413  -3.6920  -3.6906  -3.5225  -3.5212  -3.3558
    -3.3550  -3.2945  -3.2907  -3.2894  -3.1574  -3.1550  -3.1544  -3.1269
    -3.0980  -3.0964  -2.7153  -2.7153  -2.7145  -2.6528  -2.6440  -2.6435
    -1.8595  -1.8594  -1.0042  -1.0034  -0.5446  -0.5075  -0.3319   0.0390
     0.0411   0.0707   0.5465   0.5512   0.5969   0.8862   0.9444   0.9464
     1.3887   1.3926   1.4017   1.4490   1.8043   1.8070   1.9187   1.9791
     1.9863   2.0895   2.1734   2.1822

          k = 0.0000 0.3849 0.0000 ( 48609 PWs)   bands (ev):

   -17.8521 -17.4750 -17.1002 -17.0985 -16.3842 -16.3817 -16.0444 -15.7243
   -15.7223 -15.1859 -14.9142 -14.9021 -14.7853 -14.7761 -14.3282 -14.3282
   -13.4089 -12.9880 -12.5510 -12.5502 -11.7686 -11.7682 -11.5166 -11.0985
   -11.0980 -11.0221 -11.0193 -10.6291 -10.5503 -10.5443 -10.3939 -10.3938
    -9.3977  -9.3975  -9.2269  -9.1788  -9.1761  -9.1194  -8.6547  -8.6540
    -8.3894  -8.3868  -8.2977  -8.2933  -7.2366  -7.2347  -7.0903  -7.0872
    -7.0059  -6.7706  -6.7676  -6.7212  -6.6293  -6.6163  -6.1334  -6.1330
    -5.9627  -5.9616  -5.8521  -5.8032  -5.6044  -5.5344  -5.5335  -5.3368
    -5.2290  -5.2221  -4.9851  -4.9813  -4.8889  -4.8755  -4.8754  -4.7909
    -4.4795  -4.4731  -4.4216  -4.4210  -4.0936  -3.9202  -3.9197  -3.8354
    -3.5438  -3.5175  -3.4494  -3.3911  -3.3657  -3.2463  -3.2422  -3.1842
    -2.8978  -2.8168  -2.8158  -2.7220  -2.7063  -2.6288  -2.1646  -2.1561
    -2.1268  -2.0911  -1.4987  -1.4920  -0.2374  -0.2017   0.0052   0.1251
     0.1334   0.7764   0.8318   0.8431   0.8507   1.0216   1.2416   1.3500
     1.4643   1.5597   1.5723   1.6075   1.8264   1.8393   1.9531   1.9825
     2.0548   2.1720   2.1897   2.6415

          k = 0.3333 0.5774 0.0000 ( 48552 PWs)   bands (ev):

   -17.6377 -17.5876 -17.5771 -16.5031 -16.5012 -16.5000 -15.5757 -15.5524
   -15.5499 -15.5108 -15.5089 -15.4896 -14.5182 -14.4619 -14.4499 -14.0910
   -13.1302 -13.1208 -13.0996 -11.8798 -11.8752 -11.8749 -11.2487 -11.2311
   -11.2287 -10.9875 -10.9598 -10.9338 -10.4976  -9.9500  -9.9419  -9.9302
    -9.9142  -9.9001  -9.8944  -9.4071  -9.4009  -9.3859  -8.8790  -8.3459
    -8.3437  -8.3381  -7.9058  -7.9041  -7.9037  -7.2590  -7.2473  -7.2262
    -6.8045  -6.7588  -6.7537  -5.9582  -5.9554  -5.9416  -5.9244  -5.9123
    -5.9091  -5.8524  -5.8523  -5.8486  -5.5261  -5.5244  -5.5176  -5.3605
    -5.3555  -5.3534  -5.3481  -5.3480  -5.3442  -4.4383  -4.4352  -4.4067
    -4.4042  -4.4003  -4.3632  -4.2881  -4.2780  -4.2617  -4.2578  -4.2429
    -4.2343  -3.9535  -3.9457  -3.9367  -3.1823  -3.1731  -3.1704  -3.0210
    -2.9570  -2.8677  -2.6443  -2.6408  -2.6305  -2.4038  -2.2513  -2.1911
    -2.1758  -1.7398  -1.7356  -1.7349  -0.2979  -0.1463  -0.0453  -0.0023
     0.2359   0.6635   1.1303   1.1376   1.4558   1.4602   1.4827   1.5752
     1.6426   1.6929   1.7351   1.7360   1.7439   1.7561   1.8872   2.2012
     2.2197   2.2561   2.3039   2.3908

          k =-0.3333 0.1925 0.0000 ( 48609 PWs)   bands (ev):

   -17.8521 -17.4750 -17.1002 -17.0985 -16.3842 -16.3817 -16.0444 -15.7243
   -15.7223 -15.1859 -14.9146 -14.9017 -14.7856 -14.7759 -14.3283 -14.3282
   -13.4089 -12.9880 -12.5510 -12.5502 -11.7686 -11.7682 -11.5165 -11.0985
   -11.0980 -11.0222 -11.0191 -10.6292 -10.5503 -10.5443 -10.3939 -10.3938
    -9.3977  -9.3975  -9.2270  -9.1788  -9.1762  -9.1195  -8.6547  -8.6540
    -8.3894  -8.3868  -8.2977  -8.2932  -7.2366  -7.2346  -7.0904  -7.0871
    -7.0059  -6.7705  -6.7675  -6.7212  -6.6293  -6.6163  -6.1334  -6.1330
    -5.9626  -5.9616  -5.8521  -5.8032  -5.6043  -5.5344  -5.5335  -5.3368
    -5.2290  -5.2221  -4.9851  -4.9814  -4.8889  -4.8755  -4.8754  -4.7908
    -4.4795  -4.4732  -4.4216  -4.4210  -4.0936  -3.9200  -3.9199  -3.8354
    -3.5432  -3.5186  -3.4494  -3.3887  -3.3680  -3.2449  -3.2434  -3.1841
    -2.8978  -2.8169  -2.8157  -2.7221  -2.7062  -2.6288  -2.1645  -2.1562
    -2.1268  -2.0910  -1.4987  -1.4920  -0.2354  -0.2041   0.0048   0.1290
     0.1304   0.7775   0.8319   0.8444   0.8481   1.0219   1.2402   1.3505
     1.4644   1.5594   1.5808   1.5993   1.8323   1.8358   1.9499   1.9835
     2.0544   2.1738   2.1885   2.6432

          k = 0.3333 0.1925 0.0000 ( 48609 PWs)   bands (ev):

   -17.8521 -17.4750 -17.1002 -17.0985 -16.3842 -16.3817 -16.0444 -15.7243
   -15.7223 -15.1859 -14.9146 -14.9017 -14.7856 -14.7759 -14.3283 -14.3282
   -13.4089 -12.9880 -12.5509 -12.5502 -11.7686 -11.7682 -11.5165 -11.0985
   -11.0980 -11.0222 -11.0191 -10.6292 -10.5503 -10.5443 -10.3939 -10.3938
    -9.3977  -9.3974  -9.2270  -9.1788  -9.1762  -9.1194  -8.6547  -8.6540
    -8.3894  -8.3868  -8.2977  -8.2932  -7.2366  -7.2346  -7.0904  -7.0871
    -7.0059  -6.7705  -6.7675  -6.7212  -6.6293  -6.6163  -6.1334  -6.1330
    -5.9626  -5.9616  -5.8521  -5.8032  -5.6043  -5.5344  -5.5335  -5.3368
    -5.2290  -5.2221  -4.9851  -4.9814  -4.8888  -4.8755  -4.8754  -4.7909
    -4.4795  -4.4732  -4.4216  -4.4210  -4.0935  -3.9201  -3.9199  -3.8354
    -3.5431  -3.5186  -3.4494  -3.3887  -3.3680  -3.2449  -3.2435  -3.1841
    -2.8978  -2.8169  -2.8156  -2.7221  -2.7062  -2.6288  -2.1646  -2.1562
    -2.1268  -2.0909  -1.4987  -1.4920  -0.2354  -0.2041   0.0048   0.1290
     0.1306   0.7777   0.8319   0.8445   0.8478   1.0218   1.2402   1.3504
     1.4644   1.5594   1.5807   1.5993   1.8325   1.8358   1.9499   1.9834
     2.0544   2.1738   2.1885   2.6431

     highest occupied, lowest unoccupied level (ev):    -1.0034   -0.5446

!    total energy              =    -448.46378375 Ry
     Harris-Foulkes estimate   =    -448.46381096 Ry
     estimated scf accuracy    <       0.00002934 Ry

     convergence has been achieved in   3 iterations

     Using ACE for calculation of exact exchange

!!   total energy              =    -448.46379247 Ry
     Harris-Foulkes estimate   =    -448.46381967 Ry
     est. exchange err (dexx)  =       0.00000872 Ry
     - averaged Fock potential =      48.82866982 Ry
     + Fock energy (ACE)       =     -24.41573920 Ry

     EXX self-consistency reached

     Forces acting on atoms (cartesian axes, Ry/au):

     atom    1 type  1   force =     0.00000671    0.00260893    0.00153472
     atom    2 type  1   force =     0.00071901    0.00056354    0.00152548
     atom    3 type  1   force =     0.00232426   -0.00142834    0.00153031
     atom    4 type  1   force =     0.00144813    0.00078932   -0.00095093
     atom    5 type  1   force =    -0.00272061   -0.00100848   -0.00067168
     atom    6 type  1   force =    -0.00065702    0.00059202    0.00150120
     atom    7 type  1   force =    -0.00000807    0.00005606   -0.00492928
     atom    8 type  1   force =    -0.00000063   -0.00092945    0.00166736
     atom    9 type  1   force =    -0.00204686   -0.00181110   -0.00086228
     atom   10 type  1   force =    -0.00145482    0.00078001   -0.00095755
     atom   11 type  1   force =     0.00001494   -0.00015576    0.00181128
     atom   12 type  1   force =    -0.00006131   -0.00151000   -0.00111462
     atom   13 type  1   force =    -0.00066589    0.00277708   -0.00056029
     atom   14 type  1   force =    -0.00232631   -0.00149658    0.00149821
     atom   15 type  1   force =     0.00205829   -0.00179894   -0.00086513
     atom   16 type  1   force =     0.00270659   -0.00101241   -0.00067066
     atom   17 type  1   force =     0.00067083    0.00275989   -0.00068600
     atom   18 type  1   force =    -0.00001407    0.00022121   -0.00186963
     atom   19 type  2   force =    -0.00000153    0.00630185    0.00214114
     atom   20 type  2   force =     0.00145022    0.00717836    0.00718415
     atom   21 type  2   force =     0.00676140   -0.00194332    0.00743950
     atom   22 type  2   force =     0.00575997   -0.00351697    0.00226934
     atom   23 type  2   force =     0.00443716    0.00221304    0.00300793
     atom   24 type  3   force =    -0.00184259   -0.00614285   -0.00470090
     atom   25 type  2   force =    -0.00144972    0.00717955    0.00718466
     atom   26 type  3   force =    -0.00000123   -0.00552800   -0.00595595
     atom   27 type  2   force =     0.00000247    0.00024379    0.01625013
     atom   28 type  3   force =    -0.00482140    0.00288784   -0.00597479
     atom   29 type  2   force =     0.00527495   -0.00489935    0.00767489
     atom   30 type  3   force =    -0.00617107    0.00147419   -0.00478285
     atom   31 type  2   force =     0.00000078   -0.00201625    0.00337786
     atom   32 type  3   force =    -0.00224113   -0.00132620   -0.00551530
     atom   33 type  2   force =    -0.00142950    0.00104591    0.00329964
     atom   34 type  3   force =     0.00244259   -0.00147762   -0.00571923
     atom   35 type  2   force =    -0.00677421   -0.00194710    0.00743764
     atom   36 type  3   force =     0.00483106    0.00289460   -0.00597694
     atom   37 type  2   force =    -0.00527304   -0.00489980    0.00767559
     atom   38 type  3   force =     0.00000903    0.00281125   -0.00572151
     atom   39 type  2   force =    -0.00443834    0.00221154    0.00300885
     atom   40 type  3   force =     0.00225002   -0.00133180   -0.00551314
     atom   41 type  2   force =     0.00142757    0.00104402    0.00330206
     atom   42 type  3   force =    -0.00000280    0.00246625   -0.00556191
     atom   43 type  2   force =     0.00000829   -0.00484614    0.00303562
     atom   44 type  3   force =     0.00423055    0.00472167   -0.00478207
     atom   45 type  2   force =    -0.00576215   -0.00350591    0.00227014
     atom   46 type  3   force =     0.00616446    0.00147757   -0.00477873
     atom   47 type  3   force =     0.00183846   -0.00614321   -0.00470308
     atom   48 type  3   force =    -0.00243367   -0.00148405   -0.00571325
     atom   49 type  3   force =    -0.00423341    0.00472830   -0.00477351
     atom   50 type  3   force =    -0.00000633    0.00013184   -0.00331648

     Total force =     0.046379     Total SCF correction =     0.011459
     SCF correction compared to forces is large: reduce conv_thr to get better values


     Computing stress (Cartesian axis) and pressure

          total   stress  (Ry/bohr**3)                   (kbar)     P=  -15.88
  -0.00010577   0.00000000  -0.00000000        -15.56      0.00     -0.00
   0.00000000  -0.00010580  -0.00000000          0.00    -15.56     -0.00
  -0.00000000  -0.00000000  -0.00011238         -0.00     -0.00    -16.53


     Writing output data file gesic3-hse.save/

     init_run     :    655.95s CPU    658.58s WALL (       1 calls)
     electrons    :   8839.92s CPU   8903.33s WALL (       4 calls)
     forces       :     57.28s CPU     57.53s WALL (       1 calls)
     stress       :   2736.34s CPU   2738.16s WALL (       1 calls)

     Called by init_run:
     wfcinit      :    652.30s CPU    654.82s WALL (       1 calls)
     potinit      :      1.60s CPU      1.67s WALL (       1 calls)
     hinit0       :      1.70s CPU      1.72s WALL (       1 calls)

     Called by electrons:
     c_bands      :   8331.71s CPU   8388.69s WALL (      23 calls)
     sum_band     :    479.56s CPU    480.13s WALL (      23 calls)
     v_of_rho     :     24.97s CPU     26.38s WALL (      25 calls)
     mix_rho      :      2.94s CPU      3.18s WALL (      23 calls)

     Called by c_bands:
     init_us_2    :     45.00s CPU     52.48s WALL (     245 calls)
     cegterg      :   8168.85s CPU   8217.59s WALL (     115 calls)

     Called by sum_band:

     Called by *egterg:
     h_psi        :   6235.45s CPU   6256.94s WALL (     591 calls)
     g_psi        :     10.91s CPU     10.92s WALL (     471 calls)
     cdiaghg      :     97.04s CPU    102.58s WALL (     571 calls)

     Called by h_psi:
     h_psi:pot    :   5908.69s CPU   5913.84s WALL (     591 calls)
     h_psi:calbec :   1712.30s CPU   1714.12s WALL (     591 calls)
     vloc_psi     :   2643.32s CPU   2645.89s WALL (     591 calls)
     add_vuspsi   :   1553.06s CPU   1553.73s WALL (     591 calls)

     General routines
     calbec       :   2017.34s CPU   2051.50s WALL (     965 calls)
     fft          :      8.70s CPU      8.70s WALL (     253 calls)
     ffts         :      0.87s CPU      0.87s WALL (      23 calls)
     fftw         :   2614.01s CPU   2615.44s WALL (  103862 calls)
     fftc         :  20401.26s CPU  20428.47s WALL (  677040 calls)
     fftcw        :    179.24s CPU    181.55s WALL (    8060 calls)

     Parallel routines

     EXX routines
     exx_grid     :      0.00s CPU      0.00s WALL (       1 calls)
     exxinit      :    139.87s CPU    416.21s WALL (       4 calls)
     vexx         :  23511.98s CPU  23939.66s WALL (      20 calls)
     matcalc      :    240.96s CPU    274.23s WALL (     349 calls)
     aceupdate    :     11.14s CPU     11.66s WALL (      20 calls)
     vexxace      :    407.89s CPU    434.34s WALL (     294 calls)
     aceinit      :  23540.63s CPU  24024.02s WALL (      20 calls)

     PWSCF        :    10h 1m CPU        1h10m WALL

      15h

   This run was terminated on:   3:18: 8  20Apr2020            

=------------------------------------------------------------------------------=
   JOB DONE.
=------------------------------------------------------------------------------=
