
     Program PWSCF v.6.5 starts on 12Apr2020 at 23: 0:23 

     This program is part of the open-source Quantum ESPRESSO suite
     for quantum simulation of materials; please cite
         "P. Giannozzi et al., J. Phys.:Condens. Matter 21 395502 (2009);
         "P. Giannozzi et al., J. Phys.:Condens. Matter 29 465901 (2017);
          URL http://www.quantum-espresso.org", 
     in publications or presentations arising from this work. More details at
     http://www.quantum-espresso.org/quote

     Serial version
     Waiting for input...
     Reading input from standard input

     Current dimensions of program PWSCF are:
     Max number of different atomic species (ntypx) = 10
     Max number of k-points (npk) =  40000
     Max angular momentum in pseudopotentials (lmaxx) =  3

     Atomic positions and unit cell read from directory:
     ./work/gesic2.save/                                                                                                                                                                                                                                             


     IMPORTANT: XC functional enforced from input :
     Exchange-correlation= PBE
                           (   1   4   3   4   0   0   0)
     Any further DFT definition will be discarded
     Please, verify this is what you really want

               file Ge.pbe-mt_fhi.UPF: wavefunction(s)  4d 4f renormalized
               file C.pbe-mt_fhi.UPF: wavefunction(s)  4f renormalized
               file Si.pbe-mt_fhi.UPF: wavefunction(s)  4f renormalized

     -------------------------------------------------
     Parameters for Dispersion (Grimme-D2) Correction:
     -------------------------------------------------
       atom      VdW radius       C_6     

        Ge         3.264        593.221
        C          2.744         60.710
        Si         3.243        320.200

     G-vector sticks info
     --------------------
     sticks:   dense  smooth     PW     G-vecs:    dense   smooth      PW
     Sum        4429    4429   1177               388955   388955   53541



     bravais-lattice index     =            4
     lattice parameter (alat)  =      23.1302  a.u.
     unit-cell volume          =   17511.3678 (a.u.)^3
     number of atoms/cell      =           50
     number of atomic types    =            3
     number of electrons       =       200.00
     number of Kohn-Sham states=          120
     kinetic-energy cutoff     =      30.0000  Ry
     charge density cutoff     =     120.0000  Ry
     Exchange-correlation= PBE
                           (   1   4   3   4   0   0   0)

     celldm(1)=  23.130248  celldm(2)=   0.000000  celldm(3)=   1.633987
     celldm(4)=   0.000000  celldm(5)=   0.000000  celldm(6)=   0.000000

     crystal axes: (cart. coord. in units of alat)
               a(1) = (   1.000000   0.000000   0.000000 )  
               a(2) = (  -0.500000   0.866025   0.000000 )  
               a(3) = (   0.000000   0.000000   1.633987 )  

     reciprocal axes: (cart. coord. in units 2 pi/alat)
               b(1) = (  1.000000  0.577350 -0.000000 )  
               b(2) = (  0.000000  1.154701  0.000000 )  
               b(3) = (  0.000000 -0.000000  0.612000 )  


     PseudoPot. # 1 for Ge read from file:
     ./pseudo/Ge.pbe-mt_fhi.UPF
     MD5 check sum: b08ff19c3d362044f6e29226b459d86a
     Pseudo is Norm-conserving, Zval =  4.0
     Generated using FHI98PP, converted with fhi2upf.x v.5.0.2
     Using radial grid of  529 points,  3 beta functions with: 
                l(1) =   1
                l(2) =   2
                l(3) =   3

     PseudoPot. # 2 for C  read from file:
     ./pseudo/C.pbe-mt_fhi.UPF
     MD5 check sum: 058ca341f9d6d5327d9962fd88a91b65
     Pseudo is Norm-conserving, Zval =  4.0
     Generated using FHI98PP, converted with fhi2upf.x v.5.0.2
     Using radial grid of  461 points,  3 beta functions with: 
                l(1) =   0
                l(2) =   1
                l(3) =   3

     PseudoPot. # 3 for Si read from file:
     ./pseudo/Si.pbe-mt_fhi.UPF
     MD5 check sum: 259057c2adf9952f9ced37ae3d9e311d
     Pseudo is Norm-conserving, Zval =  4.0
     Generated using FHI98PP, converted with fhi2upf.x v.5.0.2
     Using radial grid of  495 points,  3 beta functions with: 
                l(1) =   0
                l(2) =   1
                l(3) =   3

     atomic species   valence    mass     pseudopotential
        Ge             4.00    72.59000     Ge( 1.00)
        C              4.00    12.01070     C ( 1.00)
        Si             4.00    28.08550     Si( 1.00)

      6 Sym. Ops. (no inversion) found



   Cartesian axes

     site n.     atom                  positions (alat units)
         1           Ge  tau(   1) = (   0.0000000   0.0000000   0.2634804  )
         2           Ge  tau(   2) = (   0.0000000   0.1924510   0.3183824  )
         3           Ge  tau(   3) = (  -0.1666667   0.2886751   0.2634804  )
         4           Ge  tau(   4) = (  -0.1666667   0.4811261   0.3183824  )
         5           Ge  tau(   5) = (  -0.3333333   0.5773503   0.2634804  )
         6           Ge  tau(   6) = (  -0.3333333   0.7698012   0.3183824  )
         7           Ge  tau(   7) = (   0.3333333   0.0000000   0.2634804  )
         8           Ge  tau(   8) = (   0.3333333   0.1924510   0.3183824  )
         9           Ge  tau(   9) = (   0.1666667   0.2886751   0.2634804  )
        10           Ge  tau(  10) = (   0.1666667   0.4811261   0.3183824  )
        11           Ge  tau(  11) = (   0.0000000   0.5773503   0.2634804  )
        12           Ge  tau(  12) = (   0.0000000   0.7698012   0.3183824  )
        13           Ge  tau(  13) = (   0.6666667   0.0000000   0.2634804  )
        14           Ge  tau(  14) = (   0.6666667   0.1924510   0.3183824  )
        15           Ge  tau(  15) = (   0.5000000   0.2886751   0.2634804  )
        16           Ge  tau(  16) = (   0.5000000   0.4811261   0.3183824  )
        17           Ge  tau(  17) = (   0.3333333   0.5773503   0.2634804  )
        18           Ge  tau(  18) = (   0.3333333   0.7698012   0.3183824  )
        19           C   tau(  19) = (   0.0000000   0.0000000   0.0000000  )
        20           Si  tau(  20) = (   0.0000000   0.1443382   0.0000000  )
        21           C   tau(  21) = (  -0.1250000   0.2165064   0.0000000  )
        22           Si  tau(  22) = (  -0.1250000   0.3608446   0.0000000  )
        23           C   tau(  23) = (  -0.2500000   0.4330127   0.0000000  )
        24           Si  tau(  24) = (  -0.2500000   0.5773509   0.0000000  )
        25           C   tau(  25) = (  -0.3750000   0.6495191   0.0000000  )
        26           Si  tau(  26) = (  -0.3750000   0.7938573   0.0000000  )
        27           C   tau(  27) = (   0.2500000   0.0000000   0.0000000  )
        28           Si  tau(  28) = (   0.2500000   0.1443382   0.0000000  )
        29           C   tau(  29) = (   0.1250000   0.2165064   0.0000000  )
        30           Si  tau(  30) = (   0.1250000   0.3608446   0.0000000  )
        31           C   tau(  31) = (   0.0000000   0.4330127   0.0000000  )
        32           Si  tau(  32) = (   0.0000000   0.5773509   0.0000000  )
        33           C   tau(  33) = (  -0.1250000   0.6495191   0.0000000  )
        34           Si  tau(  34) = (  -0.1250000   0.7938573   0.0000000  )
        35           C   tau(  35) = (   0.5000000   0.0000000   0.0000000  )
        36           Si  tau(  36) = (   0.5000000   0.1443382   0.0000000  )
        37           C   tau(  37) = (   0.3750000   0.2165064   0.0000000  )
        38           Si  tau(  38) = (   0.3750000   0.3608446   0.0000000  )
        39           C   tau(  39) = (   0.2500000   0.4330127   0.0000000  )
        40           Si  tau(  40) = (   0.2500000   0.5773509   0.0000000  )
        41           C   tau(  41) = (   0.1250000   0.6495191   0.0000000  )
        42           Si  tau(  42) = (   0.1250000   0.7938573   0.0000000  )
        43           C   tau(  43) = (   0.7500000   0.0000000   0.0000000  )
        44           Si  tau(  44) = (   0.7500000   0.1443382   0.0000000  )
        45           C   tau(  45) = (   0.6250000   0.2165064   0.0000000  )
        46           Si  tau(  46) = (   0.6250000   0.3608446   0.0000000  )
        47           C   tau(  47) = (   0.5000000   0.4330127   0.0000000  )
        48           Si  tau(  48) = (   0.5000000   0.5773509   0.0000000  )
        49           C   tau(  49) = (   0.3750000   0.6495191   0.0000000  )
        50           Si  tau(  50) = (   0.3750000   0.7938573   0.0000000  )

     number of k points=     7 (tetrahedron method)
                       cart. coord. in units 2pi/alat
        k(    1) = (   0.0000000   0.0000000   0.0000000), wk =   0.0555556
        k(    2) = (   0.0000000   0.1924501   0.0000000), wk =   0.3333333
        k(    3) = (   0.0000000   0.3849002   0.0000000), wk =   0.3333333
        k(    4) = (   0.0000000  -0.5773503   0.0000000), wk =   0.1666667
        k(    5) = (   0.1666667   0.2886751   0.0000000), wk =   0.3333333
        k(    6) = (   0.1666667   0.4811252   0.0000000), wk =   0.6666667
        k(    7) = (   0.3333333   0.5773503   0.0000000), wk =   0.1111111

     Dense  grid:   388955 G-vectors     FFT dimensions: (  81,  81, 135)

     Estimated max dynamical RAM per process >       1.85 GB

     The potential is recalculated from file :
     ./work/gesic2.save/charge-density

     Starting wfcs are  800 randomized atomic wfcs

     Band Structure Calculation
     Davidson diagonalization with overlap

     ethr =  5.00E-08,  avg # of iterations = 27.9

     total cpu time spent up to now is     5790.0 secs

     End of band structure calculation

          k = 0.0000 0.0000 0.0000 ( 48515 PWs)   bands (ev):

   -15.9187 -14.9140 -14.9041 -14.9040 -14.8784 -14.8784 -14.8605 -13.1620
   -13.1611 -13.1124 -13.1124 -13.1025 -13.1025 -12.8907 -12.8906 -12.8888
   -12.0036 -10.8930 -10.8825 -10.8825 -10.8656 -10.8656 -10.8478  -9.9534
    -9.9533  -9.9514  -9.1222  -9.1170  -9.0330  -9.0330  -8.7072  -8.7072
    -8.7058  -8.7057  -8.6703  -8.6692  -6.9173  -6.9165  -6.9164  -6.9114
    -6.9113  -6.9010  -6.7002  -6.7001  -6.6847  -6.6717  -6.6717  -6.6609
    -6.5347  -6.5066  -6.5065  -6.4849  -6.4848  -6.4776  -6.1614  -4.9867
    -4.9733  -4.9733  -4.9440  -4.9440  -4.9243  -4.8149  -4.8149  -4.8147
    -4.5694  -4.5694  -4.1428  -4.1372  -4.1372  -4.1260  -4.1260  -4.1224
    -3.9530  -3.2304  -3.2303  -3.2279  -3.2266  -3.0135  -3.0135  -2.8625
    -2.8625  -2.8052  -2.7963  -2.7963  -2.5894  -2.5887  -2.5887  -2.5627
    -2.5408  -2.5408  -2.3279  -2.3279  -2.3208  -2.2576  -2.2503  -2.2503
    -1.3768  -1.3767  -0.7199  -0.7199  -0.6206  -0.5925  -0.5768  -0.1160
    -0.1159  -0.0920   0.3791   0.3791   0.4316   0.6398   0.6985   0.6986
     1.1114   1.1114   1.1325   1.2016   1.4616   1.4616   1.5824   1.5824

          k = 0.0000 0.1925 0.0000 ( 48557 PWs)   bands (ev):

   -15.8895 -15.1991 -15.0303 -15.0256 -14.6990 -14.6985 -14.5349 -13.4900
   -13.4882 -13.1143 -13.1103 -13.0230 -12.9119 -12.9085 -12.7834 -12.7805
   -11.9711 -11.2042 -11.0207 -11.0174 -10.6726 -10.6713 -10.5145  -9.8908
    -9.8895  -9.7818  -9.4393  -9.4363  -9.0489  -9.0480  -8.8504  -8.8498
    -8.6496  -8.6483  -8.3591  -8.3575  -7.5291  -7.2729  -7.2483  -7.2458
    -7.0238  -7.0183  -6.8936  -6.8894  -6.6173  -6.6131  -6.5181  -6.5145
    -6.3003  -6.2439  -6.1932  -6.1684  -6.1229  -6.0998  -5.7253  -5.2255
    -5.0887  -5.0836  -4.9308  -4.9303  -4.7944  -4.7674  -4.7666  -4.5979
    -4.4862  -4.4859  -4.3330  -4.3255  -4.3158  -4.1165  -4.1164  -3.9954
    -3.9287  -3.4737  -3.4713  -3.3674  -3.2680  -3.0242  -3.0171  -2.9499
    -2.9143  -2.9123  -2.7918  -2.7860  -2.7582  -2.6498  -2.6456  -2.5553
    -2.5323  -2.5317  -2.3803  -2.3526  -2.3515  -2.0922  -2.0903  -2.0239
    -1.8631  -1.4472  -0.9585  -0.9517  -0.4274  -0.4085  -0.0724  -0.0612
    -0.0600  -0.0352   0.4087   0.5119   0.5259   0.7440   0.8642   0.8675
     1.0499   1.1106   1.1806   1.2327   1.3440   1.3594   1.4997   1.5550

          k = 0.0000 0.3849 0.0000 ( 48609 PWs)   bands (ev):

   -15.8021 -15.4541 -15.1141 -15.1103 -14.4576 -14.4562 -14.1464 -13.8435
   -13.8417 -13.3396 -13.0789 -13.0727 -12.9573 -12.9522 -12.5294 -12.5270
   -11.8729 -11.4853 -11.1096 -11.1067 -10.4211 -10.4194 -10.1891  -9.7938
    -9.7911  -9.7119  -9.7099  -9.3404  -9.2936  -9.2863  -9.1271  -9.1269
    -8.3044  -8.3027  -8.0554  -8.0112  -8.0086  -7.9848  -7.5956  -7.5938
    -7.2821  -7.2786  -7.2265  -7.2239  -6.3845  -6.3825  -6.1455  -6.1444
    -6.0618  -5.8787  -5.8246  -5.8198  -5.7234  -5.7146  -5.2457  -5.2449
    -5.1636  -5.1544  -5.1377  -4.9850  -4.7333  -4.6997  -4.6993  -4.5246
    -4.5191  -4.4805  -4.2545  -4.2541  -4.2323  -4.2058  -4.2037  -4.1478
    -3.8208  -3.8183  -3.7451  -3.7253  -3.3726  -3.3563  -3.3554  -3.2880
    -3.0302  -3.0078  -2.8887  -2.8638  -2.8343  -2.7650  -2.7593  -2.6953
    -2.4394  -2.4014  -2.3991  -2.2857  -2.2722  -2.1383  -1.8421  -1.8411
    -1.7989  -1.6308  -1.2580  -1.2531  -0.2950  -0.2637  -0.0557   0.0223
     0.0236   0.5463   0.5907   0.6291   0.6309   0.7901   0.9270   1.0340
     1.1644   1.2483   1.2893   1.3034   1.5402   1.5629   1.6640   1.6945

          k = 0.0000-0.5774 0.0000 ( 48666 PWs)   bands (ev):

   -15.6699 -15.6428 -15.1423 -15.1387 -14.1703 -14.1692 -14.1685 -14.1676
   -13.7555 -13.7186 -13.0449 -13.0238 -13.0108 -12.9908 -12.4308 -12.4284
   -11.7203 -11.6998 -11.1395 -11.1367 -10.1343 -10.1310 -10.1192 -10.1136
   -10.0361  -9.4693  -9.4542  -9.4351  -9.4236  -9.3869  -9.3852  -8.7366
    -8.7156  -8.2185  -7.9548  -7.9540  -7.9427  -7.9383  -7.6548  -7.6519
    -7.6507  -7.6499  -7.2961  -7.2941  -6.3011  -6.2996  -5.9536  -5.9214
    -5.7041  -5.7037  -5.6985  -5.6847  -5.6785  -5.6631  -5.1951  -5.1924
    -5.1871  -5.1847  -5.1621  -5.1606  -4.6448  -4.6336  -4.6262  -4.6186
    -4.3267  -4.2986  -4.2689  -4.2559  -4.2328  -4.2318  -4.2311  -4.2246
    -3.8505  -3.8136  -3.8112  -3.7961  -3.7927  -3.6191  -3.5493  -3.5210
    -3.0654  -3.0477  -2.8983  -2.8754  -2.8634  -2.8082  -2.8009  -2.7065
    -2.7044  -2.4237  -2.4220  -2.1709  -2.1566  -1.8883  -1.8750  -1.7069
    -1.5686  -1.5678  -1.5469  -1.5395  -0.2812  -0.2251  -0.0516   0.0372
     0.0583   0.5691   0.6445   0.6450   0.8676   0.8801   0.8982   0.9746
     1.2236   1.2790   1.2977   1.3260   1.7240   1.7725   1.8590   1.9132

          k = 0.1667 0.2887 0.0000 ( 48552 PWs)   bands (ev):

   -15.8314 -15.3238 -15.2980 -14.8071 -14.8063 -14.3391 -14.3122 -13.8655
   -13.4681 -13.4312 -13.1486 -13.1475 -12.8402 -12.7878 -12.7618 -12.5147
   -11.9055 -11.3373 -11.3167 -10.7808 -10.7763 -10.3275 -10.3076  -9.8791
    -9.7777  -9.6053  -9.5694  -9.5675  -9.2599  -9.2338  -9.1925  -8.6346
    -8.5954  -8.4842  -8.2918  -7.8802  -7.8177  -7.8123  -7.6583  -7.6311
    -7.3954  -7.0016  -6.9976  -6.7216  -6.7097  -6.5473  -6.5437  -6.0857
    -6.0360  -6.0344  -5.9648  -5.9484  -5.8472  -5.3868  -5.3731  -5.2714
    -5.2684  -5.2461  -4.8866  -4.8858  -4.8740  -4.8709  -4.5204  -4.5108
    -4.4628  -4.4611  -4.3951  -4.3680  -4.3534  -4.3007  -4.1079  -3.8999
    -3.8949  -3.8438  -3.6198  -3.5225  -3.3473  -3.2634  -3.1845  -3.1527
    -3.1264  -3.1210  -2.9514  -2.9457  -2.6842  -2.6651  -2.6256  -2.6115
    -2.5044  -2.3881  -2.3772  -2.3029  -2.2544  -2.1621  -2.1060  -1.8323
    -1.8275  -1.5913  -1.2352  -1.1033  -0.3612  -0.2599  -0.0478  -0.0115
     0.0016   0.4631   0.5675   0.6165   0.6318   0.8735   0.9118   1.0272
     1.0878   1.1894   1.2312   1.2841   1.3840   1.4103   1.5937   1.6557

          k = 0.1667 0.4811 0.0000 ( 48595 PWs)   bands (ev):

   -15.7155 -15.5401 -15.3666 -14.8619 -14.5356 -14.2190 -14.0709 -13.9235
   -13.7754 -13.5145 -13.3756 -13.2689 -12.8007 -12.7667 -12.5717 -12.3564
   -11.7754 -11.5809 -11.3886 -10.8330 -10.4852 -10.1480 -10.0879 -10.0505
    -9.8407  -9.7472  -9.5226  -9.4894  -9.2893  -9.2641  -9.0305  -8.9352
    -8.3808  -8.3533  -8.2766  -8.1740  -8.0869  -7.9877  -7.8587  -7.5993
    -7.4218  -7.4192  -6.9763  -6.8497  -6.8097  -6.3198  -6.2480  -5.9822
    -5.9153  -5.8657  -5.7384  -5.5694  -5.4058  -5.4043  -5.2272  -5.1722
    -5.1524  -4.9520  -4.9291  -4.9169  -4.8928  -4.8000  -4.6852  -4.6766
    -4.6024  -4.5972  -4.4417  -4.2999  -4.1183  -4.0770  -3.9929  -3.9920
    -3.9628  -3.9404  -3.7483  -3.6835  -3.6295  -3.4909  -3.4896  -3.4783
    -3.3558  -3.2611  -3.1486  -3.0366  -2.7110  -2.6442  -2.6364  -2.6248
    -2.5986  -2.5104  -2.3394  -2.1698  -2.1268  -2.0583  -1.8695  -1.8382
    -1.6467  -1.5781  -1.5533  -1.3256  -0.3249  -0.2242  -0.0681  -0.0270
     0.0664   0.5129   0.7469   0.8287   0.8993   0.9671   0.9833   1.0378
     1.2732   1.2893   1.3293   1.4277   1.5321   1.6174   1.7250   1.7797

          k = 0.3333 0.5774 0.0000 ( 48552 PWs)   bands (ev):

   -15.5946 -15.5623 -15.5504 -14.5626 -14.5618 -14.5612 -13.6950 -13.6820
   -13.6783 -13.6488 -13.6464 -13.6299 -12.6899 -12.6494 -12.6373 -12.2948
   -11.6305 -11.6133 -11.5948 -10.5100 -10.5089 -10.5040  -9.9416  -9.9257
    -9.9214  -9.6894  -9.6666  -9.6466  -9.2599  -8.7069  -8.6972  -8.6930
    -8.6746  -8.6668  -8.6593  -8.2809  -8.2765  -8.2640  -7.7426  -7.3598
    -7.3571  -7.3479  -6.8496  -6.8474  -6.8469  -6.2932  -6.2880  -6.2716
    -5.9031  -5.8659  -5.8646  -5.0774  -5.0767  -5.0707  -5.0574  -5.0501
    -5.0474  -5.0177  -5.0173  -5.0141  -4.8660  -4.8565  -4.8476  -4.6264
    -4.6230  -4.6216  -4.5670  -4.5537  -4.5516  -3.7956  -3.7907  -3.7609
    -3.7526  -3.7327  -3.7255  -3.7011  -3.6993  -3.6768  -3.6657  -3.6412
    -3.6372  -3.3583  -3.3490  -3.3430  -2.6977  -2.6965  -2.6884  -2.5327
    -2.4782  -2.3961  -2.1862  -2.1861  -2.1713  -1.9724  -1.9173  -1.8609
    -1.8431  -1.4627  -1.4592  -1.4570  -0.3536  -0.2392  -0.0930  -0.0741
     0.0832   0.4558   0.8105   0.8759   1.1673   1.1760   1.1960   1.2852
     1.3825   1.4249   1.4691   1.4739   1.5009   1.5025   1.5828   1.8320

     the Fermi energy is    -0.6890 ev

     Writing output data file ./work/gesic2.save/

     init_run     :      3.08s CPU      3.20s WALL (       1 calls)
     electrons    :   5774.71s CPU   5786.48s WALL (       1 calls)

     Called by init_run:
     wfcinit      :      0.00s CPU      0.00s WALL (       1 calls)
     potinit      :      0.66s CPU      0.73s WALL (       1 calls)
     hinit0       :      2.16s CPU      2.19s WALL (       1 calls)

     Called by electrons:
     c_bands      :   5774.71s CPU   5786.16s WALL (       1 calls)
     v_of_rho     :      0.63s CPU      0.69s WALL (       1 calls)

     Called by c_bands:
     init_us_2    :      1.06s CPU      1.22s WALL (       7 calls)
     cegterg      :   3415.53s CPU   3419.13s WALL (      14 calls)

     Called by sum_band:

     Called by *egterg:
     h_psi        :   2971.81s CPU   2975.73s WALL (     216 calls)
     g_psi        :      2.22s CPU      2.22s WALL (     195 calls)
     cdiaghg      :     56.03s CPU     56.04s WALL (     202 calls)

     Called by h_psi:
     h_psi:calbec :   1292.53s CPU   1292.92s WALL (     216 calls)
     vloc_psi     :    617.23s CPU    617.86s WALL (     216 calls)
     add_vuspsi   :   1058.79s CPU   1059.04s WALL (     216 calls)

     General routines
     calbec       :   1292.53s CPU   1292.91s WALL (     216 calls)
     fft          :      0.22s CPU      0.22s WALL (      10 calls)
     fftw         :    557.64s CPU    558.14s WALL (   31298 calls)
     davcio       :      0.35s CPU      7.27s WALL (      14 calls)


     PWSCF        :      1h36m CPU      1h36m WALL


   This run was terminated on:   0:37: 2  13Apr2020            

=------------------------------------------------------------------------------=
   JOB DONE.
=------------------------------------------------------------------------------=
