
     Program PWSCF v.6.8 starts on  8Aug2021 at  4:18:47 

     This program is part of the open-source Quantum ESPRESSO suite
     for quantum simulation of materials; please cite
         "P. Giannozzi et al., J. Phys.:Condens. Matter 21 395502 (2009);
         "P. Giannozzi et al., J. Phys.:Condens. Matter 29 465901 (2017);
         "P. Giannozzi et al., J. Chem. Phys. 152 154105 (2020);
          URL http://www.quantum-espresso.org", 
     in publications or presentations arising from this work. More details at
     http://www.quantum-espresso.org/quote

     Serial version
     1039 MiB available memory on the printing compute node when the environment starts

     Waiting for input...
     Reading input from standard input

     Current dimensions of program PWSCF are:
     Max number of different atomic species (ntypx) = 10
     Max number of k-points (npk) =  40000
     Max angular momentum in pseudopotentials (lmaxx) =  4

     IMPORTANT: XC functional enforced from input :
     Exchange-correlation= PBE
                           (   1   4   3   4   0   0   0)
     Any further DFT definition will be discarded
     Please, verify this is what you really want


     --------------------------------------------
     DFT-D3 Dispersion Correction (3-body terms):
     --------------------------------------------
       Reference C6 values for interpolation: 

         atom   Coordination number   C6
         C          0.000            98.23
         C          0.987            86.49
         C          1.998            58.72
         C          2.999            51.56
         C          3.984            36.41
         Ge         0.000           727.09
         Ge         0.943           633.70
         Ge         1.945           573.31
         Ge         2.919           459.90
         Ge         3.897           360.58

       Values used:

         atom   Coordination number  R0_AB[au]  C6      C8
         C          3.006            2.750     51.32   1484.33
         Ge         3.935            3.649    362.04  33345.06

         Molecular C6 ( Ry / a.u.^6 ) =       683.53


     G-vector sticks info
     --------------------
     sticks:   dense  smooth     PW     G-vecs:    dense   smooth      PW
     Sum         511     421    121                73575    52931    8889

     Using Slab Decomposition



     bravais-lattice index     =            4
     lattice parameter (alat)  =       6.1397  a.u.
     unit-cell volume          =    1542.2922 (a.u.)^3
     number of atoms/cell      =            2
     number of atomic types    =            2
     number of electrons       =         8.00
     number of Kohn-Sham states=            8
     kinetic-energy cutoff     =      40.0000  Ry
     charge density cutoff     =     200.0000  Ry
     scf convergence threshold =      1.0E-06
     mixing beta               =       0.7000
     number of iterations used =            8  plain     mixing
     Exchange-correlation= PBE
                           (   1   4   3   4   0   0   0)

     celldm(1)=   6.139720  celldm(2)=   0.000000  celldm(3)=   7.694675
     celldm(4)=   0.000000  celldm(5)=   0.000000  celldm(6)=   0.000000

     crystal axes: (cart. coord. in units of alat)
               a(1) = (   1.000000   0.000000   0.000000 )  
               a(2) = (  -0.500000   0.866025   0.000000 )  
               a(3) = (   0.000000   0.000000   7.694675 )  

     reciprocal axes: (cart. coord. in units 2 pi/alat)
               b(1) = (  1.000000  0.577350 -0.000000 )  
               b(2) = (  0.000000  1.154701  0.000000 )  
               b(3) = (  0.000000 -0.000000  0.129960 )  


     PseudoPot. # 1 for C  read from file:
     ./pseudo/C.pbe-n-rrkjus_psl.1.0.0.UPF
     MD5 check sum: 1fdd950c42eb37d8afe3dd2f8d12311e
     Pseudo is Ultrasoft + core correction, Zval =  4.0
     Generated using &quot;atomic&quot; code by A. Dal Corso  v.6.3MaX
     Using radial grid of 1073 points,  4 beta functions with: 
                l(1) =   0
                l(2) =   0
                l(3) =   1
                l(4) =   1
     Q(r) pseudized with 0 coefficients 


     PseudoPot. # 2 for Ge read from file:
     ./pseudo/Ge.pbe-n-rrkjus_psl.1.0.0.UPF
     MD5 check sum: a23a7f3f7456476e534e54484b27d8e8
     Pseudo is Ultrasoft + core correction, Zval =  4.0
     Generated using &quot;atomic&quot; code by A. Dal Corso  v.6.3
     Using radial grid of 1207 points,  4 beta functions with: 
                l(1) =   0
                l(2) =   0
                l(3) =   1
                l(4) =   1
     Q(r) pseudized with 0 coefficients 


     atomic species   valence    mass     pseudopotential
        C              4.00    12.01070     C ( 1.00)
        Ge             4.00    72.64000     Ge( 1.00)

     No symmetry found


                                    s                        frac. trans.

      isym =  1     identity                                     

 cryst.   s( 1) = (     1          0          0      )
                  (     0          1          0      )
                  (     0          0          1      )

 cart.    s( 1) = (  1.0000000  0.0000000  0.0000000 )
                  (  0.0000000  1.0000000  0.0000000 )
                  (  0.0000000  0.0000000  1.0000000 )


     point group C_1 (1)    
     there are  1 classes
     the character table:

       E    
A      1.00

     the symmetry operations in each class and the name of the first element:

     E        1
          identity                                               

   Cartesian axes

     site n.     atom                  positions (alat units)
         1           C   tau(   1) = (   0.2500113   0.1443441   4.4436113  )
         2           Ge  tau(   2) = (  -0.2500115   0.4330324   4.4436113  )

   Crystallographic axes

     site n.     atom                  positions (cryst. coord.)
         1           C   tau(   1) = (  0.3333484  0.1666742  0.5774917  )
         2           Ge  tau(   2) = ( -0.0000001  0.5000228  0.5774917  )

     number of k points=    20  Marzari-Vanderbilt smearing, width (Ry)=  0.0050
                       cart. coord. in units 2pi/alat
        k(    1) = (   0.0000000   0.0000000   0.0000000), wk =   0.0555556
        k(    2) = (   0.0000000   0.1924501   0.0000000), wk =   0.1111111
        k(    3) = (   0.0000000   0.3849002   0.0000000), wk =   0.1111111
        k(    4) = (   0.0000000  -0.5773503   0.0000000), wk =   0.0555556
        k(    5) = (   0.1666667   0.2886751   0.0000000), wk =   0.1111111
        k(    6) = (   0.1666667   0.4811252   0.0000000), wk =   0.1111111
        k(    7) = (   0.3333333   0.5773503   0.0000000), wk =   0.1111111
        k(    8) = (  -0.1666667   0.0962250   0.0000000), wk =   0.1111111
        k(    9) = (   0.1666667   0.0962250   0.0000000), wk =   0.1111111
        k(   10) = (  -0.3333333   0.1924501   0.0000000), wk =   0.1111111
        k(   11) = (   0.3333333   0.1924501   0.0000000), wk =   0.1111111
        k(   12) = (   0.5000000  -0.2886751   0.0000000), wk =   0.0555556
        k(   13) = (  -0.5000000  -0.2886751   0.0000000), wk =   0.0555556
        k(   14) = (  -0.1666667   0.2886751   0.0000000), wk =   0.1111111
        k(   15) = (   0.3333333   0.0000000   0.0000000), wk =   0.1111111
        k(   16) = (  -0.1666667   0.4811252   0.0000000), wk =   0.1111111
        k(   17) = (  -0.3333333   0.3849002   0.0000000), wk =   0.1111111
        k(   18) = (   0.5000000   0.0962250   0.0000000), wk =   0.1111111
        k(   19) = (  -0.3333333  -0.3849002   0.0000000), wk =   0.1111111
        k(   20) = (   0.5000000  -0.0962250   0.0000000), wk =   0.1111111

                       cryst. coord.
        k(    1) = (   0.0000000   0.0000000   0.0000000), wk =   0.0555556
        k(    2) = (   0.0000000   0.1666667   0.0000000), wk =   0.1111111
        k(    3) = (   0.0000000   0.3333333   0.0000000), wk =   0.1111111
        k(    4) = (   0.0000000  -0.5000000   0.0000000), wk =   0.0555556
        k(    5) = (   0.1666667   0.1666667   0.0000000), wk =   0.1111111
        k(    6) = (   0.1666667   0.3333333   0.0000000), wk =   0.1111111
        k(    7) = (   0.3333333   0.3333333   0.0000000), wk =   0.1111111
        k(    8) = (  -0.1666667   0.1666667   0.0000000), wk =   0.1111111
        k(    9) = (   0.1666667   0.0000000   0.0000000), wk =   0.1111111
        k(   10) = (  -0.3333333   0.3333333   0.0000000), wk =   0.1111111
        k(   11) = (   0.3333333   0.0000000   0.0000000), wk =   0.1111111
        k(   12) = (   0.5000000  -0.5000000   0.0000000), wk =   0.0555556
        k(   13) = (  -0.5000000   0.0000000   0.0000000), wk =   0.0555556
        k(   14) = (  -0.1666667   0.3333333   0.0000000), wk =   0.1111111
        k(   15) = (   0.3333333  -0.1666667   0.0000000), wk =   0.1111111
        k(   16) = (  -0.1666667   0.5000000   0.0000000), wk =   0.1111111
        k(   17) = (  -0.3333333   0.5000000   0.0000000), wk =   0.1111111
        k(   18) = (   0.5000000  -0.1666667   0.0000000), wk =   0.1111111
        k(   19) = (  -0.3333333  -0.1666667   0.0000000), wk =   0.1111111
        k(   20) = (   0.5000000  -0.3333333   0.0000000), wk =   0.1111111

     Dense  grid:    73575 G-vectors     FFT dimensions: (  27,  27, 216)

     Smooth grid:    52931 G-vectors     FFT dimensions: (  25,  25, 192)

     Dynamical RAM for                 wfc:       0.80 MB

     Dynamical RAM for     wfc (w. buffer):      16.89 MB

     Dynamical RAM for           str. fact:       2.25 MB

     Dynamical RAM for           local pot:       0.00 MB

     Dynamical RAM for          nlocal pot:       1.61 MB

     Dynamical RAM for                qrad:       0.65 MB

     Dynamical RAM for          rho,v,vnew:       6.97 MB

     Dynamical RAM for               rhoin:       2.32 MB

     Dynamical RAM for            rho*nmix:      17.96 MB

     Dynamical RAM for           G-vectors:       4.61 MB

     Dynamical RAM for          h,s,v(r/c):       0.01 MB

     Dynamical RAM for          <psi|beta>:       0.00 MB

     Dynamical RAM for                 psi:       1.61 MB

     Dynamical RAM for                hpsi:       1.61 MB

     Dynamical RAM for                spsi:       1.61 MB

     Dynamical RAM for      wfcinit/wfcrot:       1.61 MB

     Dynamical RAM for           addusdens:      49.40 MB

     Estimated static dynamical RAM per process >      44.68 MB

     Estimated max dynamical RAM per process >     112.04 MB

     Check: negative core charge=   -0.000006

     Initial potential from superposition of free atoms

     starting charge    7.99919, renormalised to    8.00000

     negative rho (up, down):  9.790E-05 0.000E+00
     Starting wfcs are    8 randomized atomic wfcs

     total cpu time spent up to now is        1.1 secs

     Self-consistent Calculation

     iteration #  1     ecut=    40.00 Ry     beta= 0.70
     Davidson diagonalization with overlap

---- Real-time Memory Report at c_bands before calling an iterative solver
            96 MiB given to the printing process from OS
             0 MiB allocation reported by mallinfo(arena+hblkhd)
           983 MiB available memory on the node where the printing process lives
------------------
     ethr =  1.00E-02,  avg # of iterations =  4.7

     negative rho (up, down):  2.012E-04 0.000E+00

     total cpu time spent up to now is        2.9 secs

     total energy              =     -23.82438997 Ry
     estimated scf accuracy    <       0.57567505 Ry

     iteration #  2     ecut=    40.00 Ry     beta= 0.70
     Davidson diagonalization with overlap

---- Real-time Memory Report at c_bands before calling an iterative solver
           131 MiB given to the printing process from OS
             0 MiB allocation reported by mallinfo(arena+hblkhd)
           959 MiB available memory on the node where the printing process lives
------------------
     ethr =  7.20E-03,  avg # of iterations =  4.2
     Minimization algorithm failed to find Fermi energy: reverting to bisection
     Possible cause: smearing is larger than the electronic band-gap.

     negative rho (up, down):  2.380E-04 0.000E+00

     total cpu time spent up to now is        4.6 secs

     total energy              =     -23.95497193 Ry
     estimated scf accuracy    <       0.67673189 Ry

     iteration #  3     ecut=    40.00 Ry     beta= 0.70
     Davidson diagonalization with overlap

---- Real-time Memory Report at c_bands before calling an iterative solver
           133 MiB given to the printing process from OS
             0 MiB allocation reported by mallinfo(arena+hblkhd)
           957 MiB available memory on the node where the printing process lives
------------------
     ethr =  7.20E-03,  avg # of iterations =  1.9

     negative rho (up, down):  1.614E-04 0.000E+00

     total cpu time spent up to now is        5.9 secs

     total energy              =     -24.07812770 Ry
     estimated scf accuracy    <       0.00290329 Ry

     iteration #  4     ecut=    40.00 Ry     beta= 0.70
     Davidson diagonalization with overlap

---- Real-time Memory Report at c_bands before calling an iterative solver
           134 MiB given to the printing process from OS
             0 MiB allocation reported by mallinfo(arena+hblkhd)
           955 MiB available memory on the node where the printing process lives
------------------
     c_bands:  1 eigenvalues not converged
     ethr =  3.63E-05,  avg # of iterations = 12.5

     negative rho (up, down):  1.786E-04 0.000E+00

     total cpu time spent up to now is        8.6 secs

     total energy              =     -24.07960575 Ry
     estimated scf accuracy    <       0.00052877 Ry

     iteration #  5     ecut=    40.00 Ry     beta= 0.70
     Davidson diagonalization with overlap

---- Real-time Memory Report at c_bands before calling an iterative solver
           136 MiB given to the printing process from OS
             0 MiB allocation reported by mallinfo(arena+hblkhd)
           958 MiB available memory on the node where the printing process lives
------------------
     c_bands:  1 eigenvalues not converged
     ethr =  6.61E-06,  avg # of iterations =  6.0

     negative rho (up, down):  1.868E-04 0.000E+00

     total cpu time spent up to now is       10.3 secs

     total energy              =     -24.07968224 Ry
     estimated scf accuracy    <       0.00001324 Ry

     iteration #  6     ecut=    40.00 Ry     beta= 0.70
     Davidson diagonalization with overlap

---- Real-time Memory Report at c_bands before calling an iterative solver
           138 MiB given to the printing process from OS
             0 MiB allocation reported by mallinfo(arena+hblkhd)
           955 MiB available memory on the node where the printing process lives
------------------
     ethr =  1.65E-07,  avg # of iterations =  3.9

     negative rho (up, down):  1.880E-04 0.000E+00

     total cpu time spent up to now is       11.9 secs

     total energy              =     -24.07968774 Ry
     estimated scf accuracy    <       0.00000480 Ry

     iteration #  7     ecut=    40.00 Ry     beta= 0.70
     Davidson diagonalization with overlap

---- Real-time Memory Report at c_bands before calling an iterative solver
           140 MiB given to the printing process from OS
             0 MiB allocation reported by mallinfo(arena+hblkhd)
           954 MiB available memory on the node where the printing process lives
------------------
     ethr =  6.00E-08,  avg # of iterations =  1.4

     negative rho (up, down):  1.889E-04 0.000E+00

     total cpu time spent up to now is       13.2 secs

     End of self-consistent calculation

          k = 0.0000 0.0000 0.0000 (  6623 PWs)   bands (ev):

   -17.4500  -7.1376  -4.6959  -4.6950  -0.9138   0.5540   0.5914   0.9017

     occupation numbers 
     1.0000   1.0000   1.0000   1.0000   0.0000   0.0000   0.0000   0.0000

          k = 0.0000 0.1925 0.0000 (  6561 PWs)   bands (ev):

   -17.0166  -6.8226  -6.6786  -5.2983  -0.0706   1.0728   1.1072   1.4496

     occupation numbers 
     1.0000   1.0000   1.0000   1.0000   0.0000   0.0000   0.0000   0.0000

          k = 0.0000 0.3849 0.0000 (  6567 PWs)   bands (ev):

   -15.7735 -10.0438  -6.2153  -5.3965   0.0683   0.5039   2.1757   2.7814

     occupation numbers 
     1.0000   1.0000   1.0000   1.0000   0.0000   0.0000   0.0000   0.0000

          k = 0.0000-0.5774 0.0000 (  6592 PWs)   bands (ev):

   -14.4939 -12.0617  -6.5887  -4.2012  -1.1499  -0.2512   4.2590   4.8565

     occupation numbers 
     1.0000   1.0000   1.0000   1.0000   0.0000   0.0000   0.0000   0.0000

          k = 0.1667 0.2887 0.0000 (  6572 PWs)   bands (ev):

   -16.1724  -8.9069  -6.6800  -5.7990   1.0287   1.1696   2.1500   2.3124

     occupation numbers 
     1.0000   1.0000   1.0000   1.0000   0.0000   0.0000   0.0000   0.0000

          k = 0.1667 0.4811 0.0000 (  6601 PWs)   bands (ev):

   -14.6867 -11.3376  -7.8291  -4.3324  -0.6795   1.6437   3.6336   4.1800

     occupation numbers 
     1.0000   1.0000   1.0000   1.0000   0.0000   0.0000   0.0000   0.0000

          k = 0.3333 0.5774 0.0000 (  6618 PWs)   bands (ev):

   -13.7462 -11.9866  -9.1195  -3.4717  -1.3938   3.2820   3.7692   5.3351

     occupation numbers 
     1.0000   1.0000   1.0000   1.0000   0.0000   0.0000   0.0000   0.0000

          k =-0.1667 0.0962 0.0000 (  6561 PWs)   bands (ev):

   -17.0166  -6.8221  -6.6786  -5.2989  -0.0707   1.0730   1.1072   1.4497

     occupation numbers 
     1.0000   1.0000   1.0000   1.0000   0.0000   0.0000   0.0000   0.0000

          k = 0.1667 0.0962 0.0000 (  6561 PWs)   bands (ev):

   -17.0166  -6.8225  -6.6786  -5.2984  -0.0706   1.0729   1.1072   1.4493

     occupation numbers 
     1.0000   1.0000   1.0000   1.0000   0.0000   0.0000   0.0000   0.0000

          k =-0.3333 0.1925 0.0000 (  6567 PWs)   bands (ev):

   -15.7736 -10.0433  -6.2157  -5.3966   0.0680   0.5042   2.1759   2.7857

     occupation numbers 
     1.0000   1.0000   1.0000   1.0000   0.0000   0.0000   0.0000   0.0000

          k = 0.3333 0.1925 0.0000 (  6567 PWs)   bands (ev):

   -15.7735 -10.0438  -6.2154  -5.3965   0.0685   0.5039   2.1761   2.7843

     occupation numbers 
     1.0000   1.0000   1.0000   1.0000   0.0000   0.0000   0.0000   0.0000

          k = 0.5000-0.2887 0.0000 (  6592 PWs)   bands (ev):

   -14.4943 -12.0610  -6.5891  -4.2015  -1.1493  -0.2516   4.2590   4.8566

     occupation numbers 
     1.0000   1.0000   1.0000   1.0000   0.0000   0.0000   0.0000   0.0000

          k =-0.5000-0.2887 0.0000 (  6592 PWs)   bands (ev):

   -14.4939 -12.0617  -6.5888  -4.2012  -1.1499  -0.2511   4.2587   4.8576

     occupation numbers 
     1.0000   1.0000   1.0000   1.0000   0.0000   0.0000   0.0000   0.0000

          k =-0.1667 0.2887 0.0000 (  6572 PWs)   bands (ev):

   -16.1725  -8.9064  -6.6805  -5.7991   1.0287   1.1698   2.1499   2.3104

     occupation numbers 
     1.0000   1.0000   1.0000   1.0000   0.0000   0.0000   0.0000   0.0000

          k = 0.3333 0.0000 0.0000 (  6572 PWs)   bands (ev):

   -16.1725  -8.9064  -6.6806  -5.7991   1.0288   1.1699   2.1499   2.3107

     occupation numbers 
     1.0000   1.0000   1.0000   1.0000   0.0000   0.0000   0.0000   0.0000

          k =-0.1667 0.4811 0.0000 (  6601 PWs)   bands (ev):

   -14.6868 -11.3374  -7.8293  -4.3325  -0.6793   1.6437   3.6335   4.1805

     occupation numbers 
     1.0000   1.0000   1.0000   1.0000   0.0000   0.0000   0.0000   0.0000

          k =-0.3333 0.3849 0.0000 (  6601 PWs)   bands (ev):

   -14.6869 -11.3370  -7.8295  -4.3326  -0.6790   1.6434   3.6337   4.1801

     occupation numbers 
     1.0000   1.0000   1.0000   1.0000   0.0000   0.0000   0.0000   0.0000

          k = 0.5000 0.0962 0.0000 (  6601 PWs)   bands (ev):

   -14.6868 -11.3374  -7.8293  -4.3325  -0.6793   1.6438   3.6335   4.1796

     occupation numbers 
     1.0000   1.0000   1.0000   1.0000   0.0000   0.0000   0.0000   0.0000

          k =-0.3333-0.3849 0.0000 (  6601 PWs)   bands (ev):

   -14.6867 -11.3376  -7.8291  -4.3324  -0.6795   1.6438   3.6335   4.1802

     occupation numbers 
     1.0000   1.0000   1.0000   1.0000   0.0000   0.0000   0.0000   0.0000

          k = 0.5000-0.0962 0.0000 (  6601 PWs)   bands (ev):

   -14.6869 -11.3370  -7.8295  -4.3326  -0.6790   1.6434   3.6335   4.1795

     occupation numbers 
     1.0000   1.0000   1.0000   1.0000   0.0000   0.0000   0.0000   0.0000

     the Fermi energy is    -3.0393 ev

!    total energy              =     -24.07968849 Ry
     estimated scf accuracy    <       0.00000010 Ry
     smearing contrib. (-TS)   =       0.00000000 Ry
     internal energy E=F+TS    =     -24.07968849 Ry

     The total energy is F=E-TS. E is the sum of the following terms:
     one-electron contribution =    -162.26099361 Ry
     hartree contribution      =      82.36528783 Ry
     xc contribution           =     -11.16778037 Ry
     ewald contribution        =      66.99017389 Ry
     DFT-D3 Dispersion         =      -0.00637623 Ry

     convergence has been achieved in   7 iterations

     Writing output data file ./work1/gec2.save/

     init_run     :      0.94s CPU      0.98s WALL (       1 calls)
     electrons    :     11.91s CPU     12.09s WALL (       1 calls)

     Called by init_run:
     wfcinit      :      0.42s CPU      0.42s WALL (       1 calls)
     wfcinit:atom :      0.02s CPU      0.02s WALL (      20 calls)
     wfcinit:wfcr :      0.34s CPU      0.34s WALL (      20 calls)
     potinit      :      0.14s CPU      0.14s WALL (       1 calls)
     hinit0       :      0.30s CPU      0.31s WALL (       1 calls)

     Called by electrons:
     c_bands      :      9.36s CPU      9.40s WALL (       7 calls)
     sum_band     :      1.61s CPU      1.69s WALL (       7 calls)
     v_of_rho     :      0.53s CPU      0.55s WALL (       8 calls)
     v_h          :      0.03s CPU      0.03s WALL (       8 calls)
     v_xc         :      0.51s CPU      0.52s WALL (       8 calls)
     newd         :      0.39s CPU      0.45s WALL (       8 calls)
     mix_rho      :      0.08s CPU      0.08s WALL (       7 calls)
     energy_dftd3 :      0.01s CPU      0.01s WALL (       1 calls)

     Called by c_bands:
     init_us_2    :      0.33s CPU      0.33s WALL (     300 calls)
     cegterg      :      8.99s CPU      9.00s WALL (     140 calls)

     Called by sum_band:
     sum_band:wei :      0.00s CPU      0.00s WALL (       7 calls)
     sum_band:loo :      1.26s CPU      1.26s WALL (       7 calls)
     sum_band:buf :      0.02s CPU      0.02s WALL (     140 calls)
     sum_band:ini :      0.15s CPU      0.15s WALL (     140 calls)
     sum_band:cal :      0.17s CPU      0.17s WALL (     140 calls)
     sum_band:bec :      0.00s CPU      0.00s WALL (     140 calls)
     addusdens    :      0.31s CPU      0.38s WALL (       7 calls)
     addusd:skk   :      0.00s CPU      0.00s WALL (      14 calls)
     addusd:dgemm :      0.06s CPU      0.13s WALL (      14 calls)
     addusd:qvan2 :      0.19s CPU      0.19s WALL (      14 calls)

     Called by *egterg:
     cdiaghg      :      0.06s CPU      0.06s WALL (     833 calls)
     cegterg:over :      0.58s CPU      0.58s WALL (     693 calls)
     cegterg:upda :      0.37s CPU      0.37s WALL (     693 calls)
     cegterg:last :      0.78s CPU      0.79s WALL (     367 calls)
     h_psi        :      6.74s CPU      6.75s WALL (     853 calls)
     s_psi        :      0.43s CPU      0.43s WALL (     853 calls)
     g_psi        :      0.05s CPU      0.05s WALL (     693 calls)

     Called by h_psi:
     h_psi:calbec :      0.59s CPU      0.59s WALL (     853 calls)
     vloc_psi     :      5.65s CPU      5.65s WALL (     853 calls)
     add_vuspsi   :      0.44s CPU      0.44s WALL (     853 calls)

     General routines
     calbec       :      0.76s CPU      0.76s WALL (     993 calls)
     fft          :      0.29s CPU      0.30s WALL (     102 calls)
     ffts         :      0.02s CPU      0.02s WALL (      15 calls)
     fftw         :      5.34s CPU      5.34s WALL (    8368 calls)
     interpolate  :      0.04s CPU      0.04s WALL (       8 calls)


     PWSCF        :     12.96s CPU     13.29s WALL


   This run was terminated on:   4:19: 0   8Aug2021            

=------------------------------------------------------------------------------=
   JOB DONE.
=------------------------------------------------------------------------------=
